 Entering Gaussian System, Link 0=/usr/local/apps//g09/g09
 Input=mex.com
 Output=mex.out
 Initial command:
 /usr/local/apps//g09/l1.exe "/tmp/bnp.493482.sequoia/Gau-23677.inp" -scrdir="/tmp/bnp.493482.sequoia/"
 Entering Link 1 = /usr/local/apps//g09/l1.exe PID=     23678.
  
 Copyright (c) 1988,1990,1992,1993,1995,1998,2003,2009,2013,
            Gaussian, Inc.  All Rights Reserved.
  
 This is part of the Gaussian(R) 09 program.  It is based on
 the Gaussian(R) 03 system (copyright 2003, Gaussian, Inc.),
 the Gaussian(R) 98 system (copyright 1998, Gaussian, Inc.),
 the Gaussian(R) 94 system (copyright 1995, Gaussian, Inc.),
 the Gaussian 92(TM) system (copyright 1992, Gaussian, Inc.),
 the Gaussian 90(TM) system (copyright 1990, Gaussian, Inc.),
 the Gaussian 88(TM) system (copyright 1988, Gaussian, Inc.),
 the Gaussian 86(TM) system (copyright 1986, Carnegie Mellon
 University), and the Gaussian 82(TM) system (copyright 1983,
 Carnegie Mellon University). Gaussian is a federally registered
 trademark of Gaussian, Inc.
  
 This software contains proprietary and confidential information,
 including trade secrets, belonging to Gaussian, Inc.
  
 This software is provided under written license and may be
 used, copied, transmitted, or stored only in accord with that
 written license.
  
 The following legend is applicable only to US Government
 contracts under FAR:
  
                    RESTRICTED RIGHTS LEGEND
  
 Use, reproduction and disclosure by the US Government is
 subject to restrictions as set forth in subparagraphs (a)
 and (c) of the Commercial Computer Software - Restricted
 Rights clause in FAR 52.227-19.
  
 Gaussian, Inc.
 340 Quinnipiac St., Bldg. 40, Wallingford CT 06492
  
  
 ---------------------------------------------------------------
 Warning -- This program may not be used in any manner that
 competes with the business of Gaussian, Inc. or will provide
 assistance to any competitor of Gaussian, Inc.  The licensee
 of this program is prohibited from giving any competitor of
 Gaussian, Inc. access to this program.  By using this program,
 the user acknowledges that Gaussian, Inc. is engaged in the
 business of creating and licensing software in the field of
 computational chemistry and represents and warrants to the
 licensee that it is not a competitor of Gaussian, Inc. and that
 it will not use this program in any manner prohibited above.
 ---------------------------------------------------------------
  

 Cite this work as:
 Gaussian 09, Revision D.01,
 M. J. Frisch, G. W. Trucks, H. B. Schlegel, G. E. Scuseria, 
 M. A. Robb, J. R. Cheeseman, G. Scalmani, V. Barone, B. Mennucci, 
 G. A. Petersson, H. Nakatsuji, M. Caricato, X. Li, H. P. Hratchian, 
 A. F. Izmaylov, J. Bloino, G. Zheng, J. L. Sonnenberg, M. Hada, 
 M. Ehara, K. Toyota, R. Fukuda, J. Hasegawa, M. Ishida, T. Nakajima, 
 Y. Honda, O. Kitao, H. Nakai, T. Vreven, J. A. Montgomery, Jr., 
 J. E. Peralta, F. Ogliaro, M. Bearpark, J. J. Heyd, E. Brothers, 
 K. N. Kudin, V. N. Staroverov, T. Keith, R. Kobayashi, J. Normand, 
 K. Raghavachari, A. Rendell, J. C. Burant, S. S. Iyengar, J. Tomasi, 
 M. Cossi, N. Rega, J. M. Millam, M. Klene, J. E. Knox, J. B. Cross, 
 V. Bakken, C. Adamo, J. Jaramillo, R. Gomperts, R. E. Stratmann, 
 O. Yazyev, A. J. Austin, R. Cammi, C. Pomelli, J. W. Ochterski, 
 R. L. Martin, K. Morokuma, V. G. Zakrzewski, G. A. Voth, 
 P. Salvador, J. J. Dannenberg, S. Dapprich, A. D. Daniels, 
 O. Farkas, J. B. Foresman, J. V. Ortiz, J. Cioslowski, 
 and D. J. Fox, Gaussian, Inc., Wallingford CT, 2013.
 
 ******************************************
 Gaussian 09:  ES64L-G09RevD.01 24-Apr-2013
                25-Aug-2021 
 ******************************************
 %mem=8gb
 ------------------------
 #N B3LYP/6-311G(d,p) OPT
 ------------------------
 1/14=-1,18=20,19=15,26=3,38=1/1,3;
 2/9=110,12=2,17=6,18=5,40=1/2;
 3/5=4,6=6,7=101,11=2,16=1,25=1,30=1,71=1,74=-5/1,2,3;
 4//1;
 5/5=2,38=5/2;
 6/7=2,8=2,9=2,10=2,28=1/1;
 7//1,2,3,16;
 1/14=-1,18=20,19=15,26=3/3(2);
 2/9=110/2;
 99//99;
 2/9=110/2;
 3/5=4,6=6,7=101,11=2,16=1,25=1,30=1,71=1,74=-5/1,2,3;
 4/5=5,16=3,69=1/1;
 5/5=2,38=5/2;
 7//1,2,3,16;
 1/14=-1,18=20,19=15,26=3/3(-5);
 2/9=110/2;
 6/7=2,8=2,9=2,10=2,19=2,28=1/1;
 99/9=1/99;
 ----
 Name
 ----
 Symbolic Z-matrix:
 Charge =  0 Multiplicity = 1
 N                    -4.67025  -4.36656   0.51855 
 C                    -3.27546  -4.37205   0.74677 
 C                    -2.48531  -5.2928    0.04581 
 C                    -1.09875  -5.32646   0.21862 
 C                    -0.48497  -4.44693   1.10708 
 C                    -1.25754  -3.53962   1.8262 
 C                    -2.6429   -3.50542   1.64808 
 C                    -6.63159  -1.02931   0.7062 
 C                    -7.44205  -2.06612   1.10311 
 C                    -6.8219   -3.3186    1.06749 
 N                    -7.54352  -4.37087   1.45186 
 S                    -9.03038  -3.66868   1.85864 
 N                    -8.70476  -2.04007   1.52792 
 C                    -5.50937  -3.29869   0.6574 
 S                    -5.09979  -1.67424   0.22032 
 O                    -6.9536    7.70661   1.27673 
 C                    -6.20798   6.58804   1.138 
 C                    -6.96166   5.30663   1.13959 
 C                    -8.29899   5.29548   1.59912 
 N                    -9.39943   5.38191   1.95351 
 C                    -6.28941   4.22078   0.71435 
 C                    -6.81076   2.89036   0.6441 
 C                    -8.08331   2.4027    0.4023 
 C                    -8.1506    0.97567   0.41614 
 C                    -6.92361   0.38392   0.63422 
 S                    -5.71279   1.57793   0.8448 
 O                    -4.99433   6.65265   1.0037 
 H                    -5.0715   -5.28882   0.69028 
 H                    -2.94589  -5.9747   -0.66476 
 H                    -0.49856  -6.0342   -0.34683 
 H                     0.59334  -4.46849   1.24012 
 H                    -0.78596  -2.85652   2.52779 
 H                    -3.22056  -2.80267   2.24171 
 H                    -7.92448   7.62873   1.35667 
 H                    -5.24195   4.33234   0.42503 
 H                    -8.95241   3.02149   0.21268 
 H                    -9.06626   0.41784   0.25524 
 

 GradGradGradGradGradGradGradGradGradGradGradGradGradGradGradGradGradGrad
 Berny optimization.
 Initialization pass.
                           ----------------------------
                           !    Initial Parameters    !
                           ! (Angstroms and Degrees)  !
 --------------------------                            --------------------------
 ! Name  Definition              Value          Derivative Info.                !
 --------------------------------------------------------------------------------
 ! R1    R(1,2)                  1.4133         estimate D2E/DX2                !
 ! R2    R(1,14)                 1.3652         estimate D2E/DX2                !
 ! R3    R(1,28)                 1.0203         estimate D2E/DX2                !
 ! R4    R(2,3)                  1.4012         estimate D2E/DX2                !
 ! R5    R(2,7)                  1.4013         estimate D2E/DX2                !
 ! R6    R(3,4)                  1.3977         estimate D2E/DX2                !
 ! R7    R(3,29)                 1.0872         estimate D2E/DX2                !
 ! R8    R(4,5)                  1.3927         estimate D2E/DX2                !
 ! R9    R(4,30)                 1.0867         estimate D2E/DX2                !
 ! R10   R(5,6)                  1.3918         estimate D2E/DX2                !
 ! R11   R(5,31)                 1.0867         estimate D2E/DX2                !
 ! R12   R(6,7)                  1.3972         estimate D2E/DX2                !
 ! R13   R(6,32)                 1.0868         estimate D2E/DX2                !
 ! R14   R(7,33)                 1.0863         estimate D2E/DX2                !
 ! R15   R(8,9)                  1.3745         estimate D2E/DX2                !
 ! R16   R(8,15)                 1.7316         estimate D2E/DX2                !
 ! R17   R(8,25)                 1.4449         estimate D2E/DX2                !
 ! R18   R(9,10)                 1.3981         estimate D2E/DX2                !
 ! R19   R(9,13)                 1.3325         estimate D2E/DX2                !
 ! R20   R(10,11)                1.3326         estimate D2E/DX2                !
 ! R21   R(10,14)                1.3752         estimate D2E/DX2                !
 ! R22   R(11,12)                1.6939         estimate D2E/DX2                !
 ! R23   R(12,13)                1.6935         estimate D2E/DX2                !
 ! R24   R(14,15)                1.7314         estimate D2E/DX2                !
 ! R25   R(16,17)                1.3514         estimate D2E/DX2                !
 ! R26   R(16,34)                0.9773         estimate D2E/DX2                !
 ! R27   R(17,18)                1.4866         estimate D2E/DX2                !
 ! R28   R(17,27)                1.2228         estimate D2E/DX2                !
 ! R29   R(18,19)                1.4141         estimate D2E/DX2                !
 ! R30   R(18,21)                1.346          estimate D2E/DX2                !
 ! R31   R(19,20)                1.1593         estimate D2E/DX2                !
 ! R32   R(21,22)                1.4306         estimate D2E/DX2                !
 ! R33   R(21,35)                1.0924         estimate D2E/DX2                !
 ! R34   R(22,23)                1.3841         estimate D2E/DX2                !
 ! R35   R(22,26)                1.7229         estimate D2E/DX2                !
 ! R36   R(23,24)                1.4287         estimate D2E/DX2                !
 ! R37   R(23,36)                1.0836         estimate D2E/DX2                !
 ! R38   R(24,25)                1.3796         estimate D2E/DX2                !
 ! R39   R(24,37)                1.0842         estimate D2E/DX2                !
 ! R40   R(25,26)                1.7135         estimate D2E/DX2                !
 ! A1    A(2,1,14)             126.3843         estimate D2E/DX2                !
 ! A2    A(2,1,28)             110.941          estimate D2E/DX2                !
 ! A3    A(14,1,28)            116.6282         estimate D2E/DX2                !
 ! A4    A(1,2,3)              118.5722         estimate D2E/DX2                !
 ! A5    A(1,2,7)              123.1583         estimate D2E/DX2                !
 ! A6    A(3,2,7)              118.2683         estimate D2E/DX2                !
 ! A7    A(2,3,4)              120.8891         estimate D2E/DX2                !
 ! A8    A(2,3,29)             120.0127         estimate D2E/DX2                !
 ! A9    A(4,3,29)             119.0755         estimate D2E/DX2                !
 ! A10   A(3,4,5)              120.057          estimate D2E/DX2                !
 ! A11   A(3,4,30)             119.9516         estimate D2E/DX2                !
 ! A12   A(5,4,30)             119.9895         estimate D2E/DX2                !
 ! A13   A(4,5,6)              119.7788         estimate D2E/DX2                !
 ! A14   A(4,5,31)             120.1904         estimate D2E/DX2                !
 ! A15   A(6,5,31)             120.0309         estimate D2E/DX2                !
 ! A16   A(5,6,7)              120.0307         estimate D2E/DX2                !
 ! A17   A(5,6,32)             120.1586         estimate D2E/DX2                !
 ! A18   A(7,6,32)             119.8106         estimate D2E/DX2                !
 ! A19   A(2,7,6)              120.9616         estimate D2E/DX2                !
 ! A20   A(2,7,33)             120.768          estimate D2E/DX2                !
 ! A21   A(6,7,33)             118.259          estimate D2E/DX2                !
 ! A22   A(9,8,15)             108.7645         estimate D2E/DX2                !
 ! A23   A(9,8,25)             129.2712         estimate D2E/DX2                !
 ! A24   A(15,8,25)            121.9446         estimate D2E/DX2                !
 ! A25   A(8,9,10)             114.0072         estimate D2E/DX2                !
 ! A26   A(8,9,13)             129.4979         estimate D2E/DX2                !
 ! A27   A(10,9,13)            116.4861         estimate D2E/DX2                !
 ! A28   A(9,10,11)            117.3787         estimate D2E/DX2                !
 ! A29   A(9,10,14)            114.707          estimate D2E/DX2                !
 ! A30   A(11,10,14)           127.8991         estimate D2E/DX2                !
 ! A31   A(10,11,12)           102.5482         estimate D2E/DX2                !
 ! A32   A(11,12,13)           100.5439         estimate D2E/DX2                !
 ! A33   A(9,13,12)            103.0422         estimate D2E/DX2                !
 ! A34   A(1,14,10)            127.274          estimate D2E/DX2                !
 ! A35   A(1,14,15)            124.2516         estimate D2E/DX2                !
 ! A36   A(10,14,15)           108.339          estimate D2E/DX2                !
 ! A37   A(8,15,14)             93.9763         estimate D2E/DX2                !
 ! A38   A(17,16,34)           119.3767         estimate D2E/DX2                !
 ! A39   A(16,17,18)           115.6971         estimate D2E/DX2                !
 ! A40   A(16,17,27)           121.0074         estimate D2E/DX2                !
 ! A41   A(18,17,27)           123.2887         estimate D2E/DX2                !
 ! A42   A(17,18,19)           119.1165         estimate D2E/DX2                !
 ! A43   A(17,18,21)           116.2193         estimate D2E/DX2                !
 ! A44   A(19,18,21)           124.6532         estimate D2E/DX2                !
 ! A45   A(18,21,22)           125.711          estimate D2E/DX2                !
 ! A46   A(18,21,35)           118.6967         estimate D2E/DX2                !
 ! A47   A(22,21,35)           115.5558         estimate D2E/DX2                !
 ! A48   A(21,22,23)           132.1661         estimate D2E/DX2                !
 ! A49   A(21,22,26)           118.063          estimate D2E/DX2                !
 ! A50   A(23,22,26)           109.7485         estimate D2E/DX2                !
 ! A51   A(22,23,24)           113.175          estimate D2E/DX2                !
 ! A52   A(22,23,36)           124.5267         estimate D2E/DX2                !
 ! A53   A(24,23,36)           122.297          estimate D2E/DX2                !
 ! A54   A(23,24,25)           112.8352         estimate D2E/DX2                !
 ! A55   A(23,24,37)           123.5216         estimate D2E/DX2                !
 ! A56   A(25,24,37)           123.6353         estimate D2E/DX2                !
 ! A57   A(8,25,24)            127.385          estimate D2E/DX2                !
 ! A58   A(8,25,26)            122.1828         estimate D2E/DX2                !
 ! A59   A(24,25,26)           110.4269         estimate D2E/DX2                !
 ! A60   A(22,26,25)            93.7941         estimate D2E/DX2                !
 ! A61   L(18,19,20,8,-1)      184.6641         estimate D2E/DX2                !
 ! A62   L(18,19,20,8,-2)      181.4251         estimate D2E/DX2                !
 ! D1    D(14,1,2,3)          -152.6116         estimate D2E/DX2                !
 ! D2    D(14,1,2,7)            27.8003         estimate D2E/DX2                !
 ! D3    D(28,1,2,3)            55.9769         estimate D2E/DX2                !
 ! D4    D(28,1,2,7)          -123.6111         estimate D2E/DX2                !
 ! D5    D(2,1,14,10)         -146.5314         estimate D2E/DX2                !
 ! D6    D(2,1,14,15)           38.2031         estimate D2E/DX2                !
 ! D7    D(28,1,14,10)           3.4728         estimate D2E/DX2                !
 ! D8    D(28,1,14,15)        -171.7927         estimate D2E/DX2                !
 ! D9    D(1,2,3,4)            178.9964         estimate D2E/DX2                !
 ! D10   D(1,2,3,29)             0.7439         estimate D2E/DX2                !
 ! D11   D(7,2,3,4)             -1.3951         estimate D2E/DX2                !
 ! D12   D(7,2,3,29)          -179.6476         estimate D2E/DX2                !
 ! D13   D(1,2,7,6)           -179.2248         estimate D2E/DX2                !
 ! D14   D(1,2,7,33)             2.0267         estimate D2E/DX2                !
 ! D15   D(3,2,7,6)              1.1859         estimate D2E/DX2                !
 ! D16   D(3,2,7,33)          -177.5625         estimate D2E/DX2                !
 ! D17   D(2,3,4,5)              0.6666         estimate D2E/DX2                !
 ! D18   D(2,3,4,30)          -178.841          estimate D2E/DX2                !
 ! D19   D(29,3,4,5)           178.9352         estimate D2E/DX2                !
 ! D20   D(29,3,4,30)           -0.5723         estimate D2E/DX2                !
 ! D21   D(3,4,5,6)              0.3064         estimate D2E/DX2                !
 ! D22   D(3,4,5,31)          -179.7511         estimate D2E/DX2                !
 ! D23   D(30,4,5,6)           179.8138         estimate D2E/DX2                !
 ! D24   D(30,4,5,31)           -0.2437         estimate D2E/DX2                !
 ! D25   D(4,5,6,7)             -0.5143         estimate D2E/DX2                !
 ! D26   D(4,5,6,32)           179.4501         estimate D2E/DX2                !
 ! D27   D(31,5,6,7)           179.5431         estimate D2E/DX2                !
 ! D28   D(31,5,6,32)           -0.4925         estimate D2E/DX2                !
 ! D29   D(5,6,7,2)             -0.2457         estimate D2E/DX2                !
 ! D30   D(5,6,7,33)           178.5334         estimate D2E/DX2                !
 ! D31   D(32,6,7,2)           179.7898         estimate D2E/DX2                !
 ! D32   D(32,6,7,33)           -1.4311         estimate D2E/DX2                !
 ! D33   D(15,8,9,10)            2.5427         estimate D2E/DX2                !
 ! D34   D(15,8,9,13)         -178.5896         estimate D2E/DX2                !
 ! D35   D(25,8,9,10)         -179.0733         estimate D2E/DX2                !
 ! D36   D(25,8,9,13)           -0.2055         estimate D2E/DX2                !
 ! D37   D(9,8,15,14)           -3.8814         estimate D2E/DX2                !
 ! D38   D(25,8,15,14)         177.5928         estimate D2E/DX2                !
 ! D39   D(9,8,25,24)          -28.7008         estimate D2E/DX2                !
 ! D40   D(9,8,25,26)          150.3867         estimate D2E/DX2                !
 ! D41   D(15,8,25,24)         149.496          estimate D2E/DX2                !
 ! D42   D(15,8,25,26)         -31.4165         estimate D2E/DX2                !
 ! D43   D(8,9,10,11)          179.3575         estimate D2E/DX2                !
 ! D44   D(8,9,10,14)            0.6618         estimate D2E/DX2                !
 ! D45   D(13,9,10,11)           0.3336         estimate D2E/DX2                !
 ! D46   D(13,9,10,14)        -178.3621         estimate D2E/DX2                !
 ! D47   D(8,9,13,12)         -179.0746         estimate D2E/DX2                !
 ! D48   D(10,9,13,12)          -0.2302         estimate D2E/DX2                !
 ! D49   D(9,10,11,12)          -0.2284         estimate D2E/DX2                !
 ! D50   D(14,10,11,12)        178.2699         estimate D2E/DX2                !
 ! D51   D(9,10,14,1)         -179.3951         estimate D2E/DX2                !
 ! D52   D(9,10,14,15)          -3.5167         estimate D2E/DX2                !
 ! D53   D(11,10,14,1)           2.0727         estimate D2E/DX2                !
 ! D54   D(11,10,14,15)        177.9511         estimate D2E/DX2                !
 ! D55   D(10,11,12,13)          0.079          estimate D2E/DX2                !
 ! D56   D(11,12,13,9)           0.0847         estimate D2E/DX2                !
 ! D57   D(1,14,15,8)         -179.7587         estimate D2E/DX2                !
 ! D58   D(10,14,15,8)           4.209          estimate D2E/DX2                !
 ! D59   D(34,16,17,18)         -0.8361         estimate D2E/DX2                !
 ! D60   D(34,16,17,27)        178.2486         estimate D2E/DX2                !
 ! D61   D(16,17,18,19)        -15.2289         estimate D2E/DX2                !
 ! D62   D(16,17,18,21)        165.9197         estimate D2E/DX2                !
 ! D63   D(27,17,18,19)        165.7096         estimate D2E/DX2                !
 ! D64   D(27,17,18,21)        -13.1418         estimate D2E/DX2                !
 ! D65   D(17,18,21,22)        179.3962         estimate D2E/DX2                !
 ! D66   D(17,18,21,35)          1.6969         estimate D2E/DX2                !
 ! D67   D(19,18,21,22)          0.616          estimate D2E/DX2                !
 ! D68   D(19,18,21,35)       -177.0832         estimate D2E/DX2                !
 ! D69   D(18,21,22,23)         31.7828         estimate D2E/DX2                !
 ! D70   D(18,21,22,26)       -150.1423         estimate D2E/DX2                !
 ! D71   D(35,21,22,23)       -150.4542         estimate D2E/DX2                !
 ! D72   D(35,21,22,26)         27.6207         estimate D2E/DX2                !
 ! D73   D(21,22,23,24)        179.6116         estimate D2E/DX2                !
 ! D74   D(21,22,23,36)          0.0141         estimate D2E/DX2                !
 ! D75   D(26,22,23,24)          1.4164         estimate D2E/DX2                !
 ! D76   D(26,22,23,36)       -178.1811         estimate D2E/DX2                !
 ! D77   D(21,22,26,25)       -179.236          estimate D2E/DX2                !
 ! D78   D(23,22,26,25)         -0.7519         estimate D2E/DX2                !
 ! D79   D(22,23,24,25)         -1.558          estimate D2E/DX2                !
 ! D80   D(22,23,24,37)        179.4308         estimate D2E/DX2                !
 ! D81   D(36,23,24,25)        178.0497         estimate D2E/DX2                !
 ! D82   D(36,23,24,37)         -0.9616         estimate D2E/DX2                !
 ! D83   D(23,24,25,8)        -179.8812         estimate D2E/DX2                !
 ! D84   D(23,24,25,26)          0.9429         estimate D2E/DX2                !
 ! D85   D(37,24,25,8)          -0.8713         estimate D2E/DX2                !
 ! D86   D(37,24,25,26)        179.9528         estimate D2E/DX2                !
 ! D87   D(8,25,26,22)        -179.3417         estimate D2E/DX2                !
 ! D88   D(24,25,26,22)         -0.1154         estimate D2E/DX2                !
 --------------------------------------------------------------------------------
 Trust Radius=3.00D-01 FncErr=1.00D-07 GrdErr=1.00D-06
 Number of steps in this run=    200 maximum allowed number of steps=    222.
 GradGradGradGradGradGradGradGradGradGradGradGradGradGradGradGradGradGrad

                          Input orientation:                          
 ---------------------------------------------------------------------
 Center     Atomic      Atomic             Coordinates (Angstroms)
 Number     Number       Type             X           Y           Z
 ---------------------------------------------------------------------
      1          7           0       -4.670250   -4.366560    0.518550
      2          6           0       -3.275460   -4.372050    0.746770
      3          6           0       -2.485310   -5.292800    0.045810
      4          6           0       -1.098750   -5.326460    0.218620
      5          6           0       -0.484970   -4.446930    1.107080
      6          6           0       -1.257540   -3.539620    1.826200
      7          6           0       -2.642900   -3.505420    1.648080
      8          6           0       -6.631590   -1.029310    0.706200
      9          6           0       -7.442050   -2.066120    1.103110
     10          6           0       -6.821900   -3.318600    1.067490
     11          7           0       -7.543520   -4.370870    1.451860
     12         16           0       -9.030380   -3.668680    1.858640
     13          7           0       -8.704760   -2.040070    1.527920
     14          6           0       -5.509370   -3.298690    0.657400
     15         16           0       -5.099790   -1.674240    0.220320
     16          8           0       -6.953600    7.706610    1.276730
     17          6           0       -6.207980    6.588040    1.138000
     18          6           0       -6.961660    5.306630    1.139590
     19          6           0       -8.298990    5.295480    1.599120
     20          7           0       -9.399430    5.381910    1.953510
     21          6           0       -6.289410    4.220780    0.714350
     22          6           0       -6.810760    2.890360    0.644100
     23          6           0       -8.083310    2.402700    0.402300
     24          6           0       -8.150600    0.975670    0.416140
     25          6           0       -6.923610    0.383920    0.634220
     26         16           0       -5.712790    1.577930    0.844800
     27          8           0       -4.994330    6.652650    1.003700
     28          1           0       -5.071500   -5.288820    0.690280
     29          1           0       -2.945890   -5.974700   -0.664760
     30          1           0       -0.498560   -6.034200   -0.346830
     31          1           0        0.593340   -4.468490    1.240120
     32          1           0       -0.785960   -2.856520    2.527790
     33          1           0       -3.220560   -2.802670    2.241710
     34          1           0       -7.924480    7.628730    1.356670
     35          1           0       -5.241950    4.332340    0.425030
     36          1           0       -8.952410    3.021490    0.212680
     37          1           0       -9.066260    0.417840    0.255240
 ---------------------------------------------------------------------
                    Distance matrix (angstroms):
                    1          2          3          4          5
     1  N    0.000000
     2  C    1.413348   0.000000
     3  C    2.419786   1.401236   0.000000
     4  C    3.710388   2.434729   1.397693   0.000000
     5  C    4.227221   2.814652   2.417261   1.392717   0.000000
     6  C    3.747048   2.435182   2.784034   2.408802   1.391837
     7  C    2.475388   1.401264   2.405583   2.782794   2.415737
     8  C    3.875475   4.737000   5.983736   7.022503   7.044272
     9  C    3.649193   4.775433   6.008213   7.186765   7.353179
    10  C    2.455433   3.713469   4.873121   6.124257   6.436721
    11  N    3.021054   4.325909   5.330330   6.630920   7.067375
    12  S    4.614500   5.903396   6.982984   8.267325   8.613626
    13  N    4.765360   5.960338   7.173455   8.388445   8.575257
    14  C    1.365192   2.480009   3.673616   4.874213   5.173515
    15  S    2.742632   3.299016   4.467654   5.417290   5.456255
    16  O   12.310563  12.637389  13.800922  14.326890  13.768823
    17  C   11.079332  11.352370  12.498220  12.996338  12.430783
    18  C    9.960264  10.364325  11.557767  12.177212  11.708138
    19  C   10.377399  10.928106  12.178806  12.906388  12.498623
    20  N   10.929635  11.580111  12.860552  13.659441  13.296245
    21  C    8.740848   9.106134  10.267732  10.878350  10.439107
    22  C    7.567062   8.077839   9.275321  10.016198   9.698752
    23  C    7.581911   8.314525   9.522889  10.419104  10.254215
    24  C    6.376735   7.243923   8.457326   9.459622   9.415087
    25  C    5.259094   5.995074   7.229791   8.167629   8.063299
    26  S    6.044029   6.430587   7.632951   8.327789   7.981092
    27  O   11.034645  11.160848  12.243631  12.621053  11.981056
    28  H    1.020322   2.017280   2.665284   4.000828   4.681747
    29  H    2.638135   2.160907   1.087213   2.147674   3.395530
    30  H    4.575249   3.416120   2.156621   1.086673   2.152548
    31  H    5.313796   3.901321   3.403520   2.154703   1.086700
    32  H    4.626551   3.415622   3.870849   3.395690   2.153698
    33  H    2.741648   2.168136   3.400488   3.868396   3.387393
    34  H   12.457104  12.884257  14.080798  14.687501  14.185562
    35  H    8.718168   8.929558  10.019291  10.511952  10.008478
    36  H    8.544807   9.336886  10.534640  11.461600  11.325846
    37  H    6.502670   7.531136   8.715743   9.822400   9.901018
                    6          7          8          9         10
     6  C    0.000000
     7  C    1.397182   0.000000
     8  C    6.036263   4.788309   0.000000
     9  C    6.398611   5.039883   1.374539   0.000000
    10  C    5.620195   4.223272   2.325424   1.398056   0.000000
    11  N    6.351744   4.980320   3.543113   2.333194   1.332572
    12  S    7.773979   6.393034   3.748144   2.379457   2.371889
    13  N    7.602546   6.237615   2.448447   1.332508   2.322024
    14  C    4.416129   3.039874   2.532162   2.335196   1.375247
    15  S    4.563045   3.380537   1.731596   2.533588   2.527307
    16  O   12.618427  12.017889   8.760451   9.786469  11.027982
    17  C   11.293802  10.716712   7.641330   8.741775   9.925895
    18  C   10.548202   9.826621   6.359317   7.388474   8.626664
    19  C   11.300114  10.461816   6.601553   7.427888   8.755958
    20  N   12.078919  11.168197   7.093692   7.747752   9.117432
    21  C    9.315564   8.594362   5.261235   6.403501   7.566406
    22  C    8.577893   7.699678   3.924254   5.017560   6.223389
    23  C    9.161321   8.127479   3.738788   4.568665   5.896347
    24  C    8.360047   7.206428   2.532088   3.197883   4.542076
    25  C    6.994236   5.871912   1.444879   2.547810   3.729172
    26  S    6.855780   5.992490   2.767870   4.041802   5.025507
    27  O   10.886803  10.446570   7.860130   9.056388  10.137549
    28  H    4.346988   3.161644   4.536250   4.021906   2.662321
    29  H    3.871049   3.396818   6.318291   6.214324   5.007895
    30  H    3.394266   3.869443   7.985728   8.127733   7.025625
    31  H    2.152219   3.401056   8.019516   8.387946   7.505853
    32  H    1.086849   2.154806   6.389701   6.852589   6.227244
    33  H    2.137567   1.086253   4.139773   4.433948   3.822908
    34  H   13.015398  12.326772   8.778174   9.710157  11.006514
    35  H    8.933451   8.347538   5.545940   6.800038   7.838742
    36  H   10.240246   9.190802   4.694545   5.381248   6.742886
    37  H    8.894128   7.654510   2.867965   3.086584   4.433721
                   11         12         13         14         15
    11  N    0.000000
    12  S    1.693899   0.000000
    13  N    2.605166   1.693451   0.000000
    14  C    2.432797   3.738634   3.542943   0.000000
    15  S    3.841916   4.702278   3.852202   1.731367   0.000000
    16  O   12.093147  11.577947   9.905929  11.116924   9.620445
    17  C   11.044450  10.662344   8.990563   9.923027   8.386626
    18  C    9.700004   9.238659   7.560635   8.740320   7.283142
    19  C    9.696945   8.997691   7.347109   9.084524   7.791853
    20  N    9.940461   9.058608   7.466557   9.600275   8.442755
    21  C    8.713964   8.430059   6.759738   7.560035   6.034113
    22  C    7.342675   7.030137   5.355139   6.324408   4.893116
    23  C    6.875624   6.315024   4.625087   6.260678   5.055289
    24  C    5.479667   4.942146   3.261570   5.030353   4.045715
    25  C    4.864242   4.728768   3.137981   3.944899   2.780945
    26  S    6.253664   6.289769   4.744308   4.884457   3.367841
    27  O   11.323304  11.115326   9.466017   9.970675   8.364323
    28  H    2.744726   4.434259   4.945361   2.037996   3.645113
    29  H    5.309478   6.978989   7.311207   3.934535   4.890461
    30  H    7.458781   9.124239   9.317161   5.796526   6.364136
    31  H    8.140200   9.676686   9.614297   6.241079   6.423360
    32  H    7.008245   8.311307   8.023324   5.099458   5.033024
    33  H    4.665951   5.886487   5.582786   2.827495   2.981757
    34  H   12.006023  11.362502   9.701745  11.212950   9.788535
    35  H    9.060765   8.967930   7.335873   7.639249   6.011748
    36  H    7.626764   6.890112   5.235511   7.210893   6.073929
    37  H    5.165499   4.389969   2.791365   5.160019   4.484518
                   16         17         18         19         20
    16  O    0.000000
    17  C    1.351441   0.000000
    18  C    2.403909   1.486623   0.000000
    19  C    2.779848   2.501133   1.414123   0.000000
    20  N    3.441562   3.507871   2.571158   1.159323   0.000000
    21  C    3.592830   2.406248   1.346038   2.444629   3.543440
    22  C    4.859721   3.778904   2.471162   2.985213   3.824080
    23  C    5.492935   4.644910   3.199141   3.138004   3.607508
    24  C    6.890499   5.982771   4.549085   4.481319   4.830945
    25  C    7.350885   6.265543   4.948729   5.190966   5.731502
    26  S    6.267926   5.043053   3.943321   4.591036   5.412099
    27  O    2.241454   1.222766   2.387598   3.621769   4.682075
    28  H   13.144102  11.939508  10.772100  11.102706  11.584093
    29  H   14.387820  13.103954  12.109934  12.680607  13.322016
    30  H   15.268050  13.932808  13.137562  13.892267  14.657579
    31  H   14.324479  12.981342  12.354801  13.211265  14.049724
    32  H   12.295717  10.978594  10.329733  11.124889  11.932870
    33  H   11.194273   9.916062   8.998402   9.580366  10.259086
    34  H    0.977274   2.019214   2.523152   2.375520   2.753161
    35  H    3.878252   2.555332   2.101723   3.413447   4.552196
    36  H    5.203633   4.594387   3.169245   2.742299   2.966799
    37  H    7.657215   6.857142   5.395524   5.117234   5.257101
                   21         22         23         24         25
    21  C    0.000000
    22  C    1.430650   0.000000
    23  C    2.573105   1.384075   0.000000
    24  C    3.752825   2.348015   1.428683   0.000000
    25  C    3.889746   2.508999   2.339693   1.379577   0.000000
    26  S    2.708166   1.722873   2.548611   2.547427   1.713502
    27  O    2.770370   4.193275   5.288247   6.521915   6.569293
    28  H    9.587303   8.362185   8.265193   6.985689   5.967699
    29  H   10.817989   9.759079   9.884965   8.750143   7.611942
    30  H   11.824748  10.976046  11.369737  10.405485   9.134330
    31  H   11.097391  10.456032  11.099525  10.333165   8.967582
    32  H    9.146841   8.536576   9.242750   8.566368   7.194220
    33  H    7.815339   6.917549   7.357013   6.474091   5.143050
    34  H    3.834078   4.919378   5.314832   6.723015   7.349214
    35  H    1.092394   2.142070   3.434728   4.441571   4.296715
    36  H    2.963366   2.188603   1.083601   2.206734   3.354177
    37  H    4.731176   3.369250   2.219794   1.084203   2.176172
                   26         27         28         29         30
    26  S    0.000000
    27  O    5.127789   0.000000
    28  H    6.898361  11.945832   0.000000
    29  H    8.183931  12.900769   2.612428   0.000000
    30  H    9.303370  13.527455   4.747944   2.468612   0.000000
    31  H    8.745442  12.448201   5.750276   4.292247   2.482358
    32  H    6.838893  10.509878   5.259123   4.957895   4.294612
    33  H    5.229935   9.699588   3.466101   4.311008   4.955059
    34  H    6.462644   3.108553  13.245628  14.626204  15.643588
    35  H    2.825716   2.404166   9.626325  10.615772  11.426315
    36  H    3.602579   5.429312   9.184270  10.852632  12.401054
    37  H    3.597103   7.484228   6.979494   8.897747  10.742290
                   31         32         33         34         35
    31  H    0.000000
    32  H    2.481735   0.000000
    33  H    4.280651   2.451942   0.000000
    34  H   14.795593  12.738542  11.477119   0.000000
    35  H   10.591015   8.715340   7.635097   4.350874   0.000000
    36  H   12.176895  10.324807   8.419733   4.857161   3.940931
    37  H   10.869870   9.189629   6.963473   7.383342   5.475170
                   36         37
    36  H    0.000000
    37  H    2.606485   0.000000
 Stoichiometry    C18H10N4O2S3
 Framework group  C1[X(C18H10N4O2S3)]
 Deg. of freedom   105
 Full point group                 C1      NOp   1
 Largest Abelian subgroup         C1      NOp   1
 Largest concise Abelian subgroup C1      NOp   1
                         Standard orientation:                         
 ---------------------------------------------------------------------
 Center     Atomic      Atomic             Coordinates (Angstroms)
 Number     Number       Type             X           Y           Z
 ---------------------------------------------------------------------
      1          7           0       -4.344137    0.123814   -0.376357
      2          6           0       -4.788843   -1.174238   -0.037461
      3          6           0       -5.928807   -1.680147   -0.676211
      4          6           0       -6.398818   -2.965680   -0.393302
      5          6           0       -5.741238   -3.758167    0.544362
      6          6           0       -4.619209   -3.263173    1.202572
      7          6           0       -4.149187   -1.979353    0.914468
      8          6           0       -0.552477    0.924358   -0.334551
      9          6           0       -1.267754    2.051561   -0.007212
     10          6           0       -2.653041    1.863295    0.002530
     11          7           0       -3.411565    2.910568    0.324413
     12         16           0       -2.263183    4.121738    0.613518
     13          7           0       -0.831112    3.268446    0.315454
     14          6           0       -3.061684    0.585802   -0.301325
     15         16           0       -1.662688   -0.353625   -0.698715
     16          8           0        7.840832   -1.518919    0.238381
     17          6           0        6.540143   -1.876390    0.155825
     18          6           0        5.566180   -0.755019    0.092808
     19          6           0        5.992131    0.546894    0.443993
     20          7           0        6.432693    1.585821    0.709634
     21          6           0        4.313497   -1.075651   -0.281090
     22          6           0        3.217437   -0.163566   -0.397326
     23          6           0        3.155579    1.175559   -0.741684
     24          6           0        1.825116    1.696125   -0.738156
     25          6           0        0.878144    0.743092   -0.424783
     26         16           0        1.628303   -0.765814   -0.114055
     27          8           0        6.211521   -3.053598    0.119132
     28          1           0       -5.086323    0.810641   -0.240394
     29          1           0       -6.443985   -1.081836   -1.423638
     30          1           0       -7.273368   -3.349831   -0.911421
     31          1           0       -6.102415   -4.759489    0.763045
     32          1           0       -4.106600   -3.872946    1.941931
     33          1           0       -3.285918   -1.612723    1.462459
     34          1           0        8.078285   -0.570933    0.240238
     35          1           0        4.078882   -2.122804   -0.485423
     36          1           0        4.014730    1.784123   -0.998004
     37          1           0        1.584810    2.726812   -0.973603
 ---------------------------------------------------------------------
 Rotational constants (GHZ):      0.2566160      0.0677889      0.0549575
 Standard basis: 6-311G(d,p) (5D, 7F)
 There are   597 symmetry adapted cartesian basis functions of A   symmetry.
 There are   570 symmetry adapted basis functions of A   symmetry.
   570 basis functions,   986 primitive gaussians,   597 cartesian basis functions
   105 alpha electrons      105 beta electrons
       nuclear repulsion energy      2601.6308486547 Hartrees.
 NAtoms=   37 NActive=   37 NUniq=   37 SFac= 1.00D+00 NAtFMM=   60 NAOKFM=F Big=F
 Integral buffers will be    131072 words long.
 Raffenetti 2 integral format.
 Two-electron integral symmetry is turned on.
 One-electron integrals computed using PRISM.
 NBasis=   570 RedAO= T EigKep=  1.89D-04  NBF=   570
 NBsUse=   570 1.00D-06 EigRej= -1.00D+00 NBFU=   570
 ExpMin= 7.71D-02 ExpMax= 9.34D+04 ExpMxC= 3.17D+03 IAcc=2 IRadAn=         4 AccDes= 0.00D+00
 Harris functional with IExCor=  402 and IRadAn=       4 diagonalized for initial guess.
 HarFok:  IExCor=  402 AccDes= 0.00D+00 IRadAn=         4 IDoV= 1 UseB2=F ITyADJ=14
 ICtDFT=  3500011 ScaDFX=  1.000000  1.000000  1.000000  1.000000
 FoFCou: FMM=F IPFlag=           0 FMFlag=      100000 FMFlg1=           0
         NFxFlg=           0 DoJE=T BraDBF=F KetDBF=T FulRan=T
         wScrn=  0.000000 ICntrl=     500 IOpCl=  0 I1Cent=   200000004 NGrid=           0
         NMat0=    1 NMatS0=      1 NMatT0=    0 NMatD0=    1 NMtDS0=    0 NMtDT0=    0
 Petite list used in FoFCou.
 Requested convergence on RMS density matrix=1.00D-08 within 128 cycles.
 Requested convergence on MAX density matrix=1.00D-06.
 Requested convergence on             energy=1.00D-06.
 No special actions if energy rises.
 Integral accuracy reduced to 1.0D-05 until final iterations.
 Initial convergence to 1.0D-05 achieved.  Increase integral accuracy.
 SCF Done:  E(RB3LYP) =  -2256.19742311     A.U. after   19 cycles
            NFock= 19  Conv=0.94D-08     -V/T= 2.0023

 **********************************************************************

            Population analysis using the SCF density.

 **********************************************************************

 Orbital symmetries:
       Occupied  (A) (A) (A) (A) (A) (A) (A) (A) (A) (A) (A) (A)
                 (A) (A) (A) (A) (A) (A) (A) (A) (A) (A) (A) (A)
                 (A) (A) (A) (A) (A) (A) (A) (A) (A) (A) (A) (A)
                 (A) (A) (A) (A) (A) (A) (A) (A) (A) (A) (A) (A)
                 (A) (A) (A) (A) (A) (A) (A) (A) (A) (A) (A) (A)
                 (A) (A) (A) (A) (A) (A) (A) (A) (A) (A) (A) (A)
                 (A) (A) (A) (A) (A) (A) (A) (A) (A) (A) (A) (A)
                 (A) (A) (A) (A) (A) (A) (A) (A) (A) (A) (A) (A)
                 (A) (A) (A) (A) (A) (A) (A) (A) (A)
       Virtual   (A) (A) (A) (A) (A) (A) (A) (A) (A) (A) (A) (A)
                 (A) (A) (A) (A) (A) (A) (A) (A) (A) (A) (A) (A)
                 (A) (A) (A) (A) (A) (A) (A) (A) (A) (A) (A) (A)
                 (A) (A) (A) (A) (A) (A) (A) (A) (A) (A) (A) (A)
                 (A) (A) (A) (A) (A) (A) (A) (A) (A) (A) (A) (A)
                 (A) (A) (A) (A) (A) (A) (A) (A) (A) (A) (A) (A)
                 (A) (A) (A) (A) (A) (A) (A) (A) (A) (A) (A) (A)
                 (A) (A) (A) (A) (A) (A) (A) (A) (A) (A) (A) (A)
                 (A) (A) (A) (A) (A) (A) (A) (A) (A) (A) (A) (A)
                 (A) (A) (A) (A) (A) (A) (A) (A) (A) (A) (A) (A)
                 (A) (A) (A) (A) (A) (A) (A) (A) (A) (A) (A) (A)
                 (A) (A) (A) (A) (A) (A) (A) (A) (A) (A) (A) (A)
                 (A) (A) (A) (A) (A) (A) (A) (A) (A) (A) (A) (A)
                 (A) (A) (A) (A) (A) (A) (A) (A) (A) (A) (A) (A)
                 (A) (A) (A) (A) (A) (A) (A) (A) (A) (A) (A) (A)
                 (A) (A) (A) (A) (A) (A) (A) (A) (A) (A) (A) (A)
                 (A) (A) (A) (A) (A) (A) (A) (A) (A) (A) (A) (A)
                 (A) (A) (A) (A) (A) (A) (A) (A) (A) (A) (A) (A)
                 (A) (A) (A) (A) (A) (A) (A) (A) (A) (A) (A) (A)
                 (A) (A) (A) (A) (A) (A) (A) (A) (A) (A) (A) (A)
                 (A) (A) (A) (A) (A) (A) (A) (A) (A) (A) (A) (A)
                 (A) (A) (A) (A) (A) (A) (A) (A) (A) (A) (A) (A)
                 (A) (A) (A) (A) (A) (A) (A) (A) (A) (A) (A) (A)
                 (A) (A) (A) (A) (A) (A) (A) (A) (A) (A) (A) (A)
                 (A) (A) (A) (A) (A) (A) (A) (A) (A) (A) (A) (A)
                 (A) (A) (A) (A) (A) (A) (A) (A) (A) (A) (A) (A)
                 (A) (A) (A) (A) (A) (A) (A) (A) (A) (A) (A) (A)
                 (A) (A) (A) (A) (A) (A) (A) (A) (A) (A) (A) (A)
                 (A) (A) (A) (A) (A) (A) (A) (A) (A) (A) (A) (A)
                 (A) (A) (A) (A) (A) (A) (A) (A) (A) (A) (A) (A)
                 (A) (A) (A) (A) (A) (A) (A) (A) (A) (A) (A) (A)
                 (A) (A) (A) (A) (A) (A) (A) (A) (A) (A) (A) (A)
                 (A) (A) (A) (A) (A) (A) (A) (A) (A) (A) (A) (A)
                 (A) (A) (A) (A) (A) (A) (A) (A) (A) (A) (A) (A)
                 (A) (A) (A) (A) (A) (A) (A) (A) (A) (A) (A) (A)
                 (A) (A) (A) (A) (A) (A) (A) (A) (A) (A) (A) (A)
                 (A) (A) (A) (A) (A) (A) (A) (A) (A) (A) (A) (A)
                 (A) (A) (A) (A) (A) (A) (A) (A) (A) (A) (A) (A)
                 (A) (A) (A) (A) (A) (A) (A) (A) (A)
 The electronic state is 1-A.
 Alpha  occ. eigenvalues --  -88.95880 -88.92103 -88.89228 -19.16604 -19.10533
 Alpha  occ. eigenvalues --  -14.38539 -14.37793 -14.36803 -14.32433 -10.31553
 Alpha  occ. eigenvalues --  -10.28076 -10.24696 -10.24209 -10.23989 -10.23758
 Alpha  occ. eigenvalues --  -10.22892 -10.22656 -10.22560 -10.22466 -10.22355
 Alpha  occ. eigenvalues --  -10.20170 -10.20091 -10.20072 -10.19985 -10.19949
 Alpha  occ. eigenvalues --  -10.19433 -10.19293  -8.03981  -8.00726  -7.98024
 Alpha  occ. eigenvalues --   -6.00391  -5.99831  -5.99605  -5.97012  -5.96623
 Alpha  occ. eigenvalues --   -5.96340  -5.94322  -5.93927  -5.93591  -1.10143
 Alpha  occ. eigenvalues --   -1.04128  -1.01863  -0.99956  -0.92914  -0.92522
 Alpha  occ. eigenvalues --   -0.91416  -0.90661  -0.87440  -0.84779  -0.79395
 Alpha  occ. eigenvalues --   -0.78407  -0.77361  -0.77075  -0.75967  -0.72799
 Alpha  occ. eigenvalues --   -0.68549  -0.67209  -0.65012  -0.64226  -0.63867
 Alpha  occ. eigenvalues --   -0.61616  -0.60879  -0.59519  -0.57753  -0.56177
 Alpha  occ. eigenvalues --   -0.55230  -0.54577  -0.52264  -0.51078  -0.49390
 Alpha  occ. eigenvalues --   -0.48412  -0.48109  -0.47244  -0.46206  -0.45809
 Alpha  occ. eigenvalues --   -0.44925  -0.44834  -0.44499  -0.43505  -0.42607
 Alpha  occ. eigenvalues --   -0.41806  -0.41461  -0.40728  -0.39389  -0.38831
 Alpha  occ. eigenvalues --   -0.38662  -0.38240  -0.37854  -0.37663  -0.37417
 Alpha  occ. eigenvalues --   -0.36635  -0.36393  -0.35820  -0.35468  -0.33451
 Alpha  occ. eigenvalues --   -0.33227  -0.32754  -0.31231  -0.29622  -0.28458
 Alpha  occ. eigenvalues --   -0.28080  -0.27686  -0.27354  -0.25508  -0.19774
 Alpha virt. eigenvalues --   -0.12886  -0.09622  -0.04480  -0.04170  -0.03351
 Alpha virt. eigenvalues --   -0.02391  -0.00857   0.00413   0.00626   0.01164
 Alpha virt. eigenvalues --    0.01629   0.02678   0.02878   0.03452   0.03891
 Alpha virt. eigenvalues --    0.04701   0.05193   0.06221   0.07037   0.07469
 Alpha virt. eigenvalues --    0.08537   0.09444   0.10334   0.10949   0.11188
 Alpha virt. eigenvalues --    0.11421   0.12183   0.13289   0.14137   0.14567
 Alpha virt. eigenvalues --    0.15478   0.15823   0.16381   0.17224   0.18187
 Alpha virt. eigenvalues --    0.19454   0.20045   0.21334   0.21933   0.22749
 Alpha virt. eigenvalues --    0.22866   0.23172   0.24487   0.25402   0.26049
 Alpha virt. eigenvalues --    0.27016   0.27629   0.28214   0.29131   0.30580
 Alpha virt. eigenvalues --    0.31098   0.31774   0.32580   0.33260   0.33725
 Alpha virt. eigenvalues --    0.34194   0.34450   0.35232   0.35517   0.36044
 Alpha virt. eigenvalues --    0.36368   0.37076   0.38009   0.38400   0.38571
 Alpha virt. eigenvalues --    0.38731   0.39719   0.39922   0.40395   0.40656
 Alpha virt. eigenvalues --    0.40879   0.41402   0.41965   0.42165   0.42345
 Alpha virt. eigenvalues --    0.42657   0.43611   0.43873   0.44084   0.44925
 Alpha virt. eigenvalues --    0.46332   0.46507   0.47172   0.47246   0.47876
 Alpha virt. eigenvalues --    0.48236   0.48949   0.49395   0.50381   0.51363
 Alpha virt. eigenvalues --    0.51608   0.51946   0.52444   0.53127   0.53614
 Alpha virt. eigenvalues --    0.55698   0.55927   0.56557   0.57224   0.57623
 Alpha virt. eigenvalues --    0.57907   0.58180   0.58340   0.59000   0.59133
 Alpha virt. eigenvalues --    0.59660   0.59922   0.60697   0.61221   0.62122
 Alpha virt. eigenvalues --    0.62181   0.63478   0.63888   0.64011   0.64581
 Alpha virt. eigenvalues --    0.64615   0.65404   0.66264   0.66838   0.67435
 Alpha virt. eigenvalues --    0.68316   0.68901   0.70028   0.71285   0.71555
 Alpha virt. eigenvalues --    0.71719   0.72602   0.74024   0.74301   0.74703
 Alpha virt. eigenvalues --    0.75050   0.75410   0.75640   0.76775   0.77270
 Alpha virt. eigenvalues --    0.77698   0.78628   0.79238   0.80222   0.80511
 Alpha virt. eigenvalues --    0.81055   0.81467   0.82085   0.82577   0.83059
 Alpha virt. eigenvalues --    0.84115   0.84374   0.84651   0.85026   0.86963
 Alpha virt. eigenvalues --    0.87293   0.88233   0.88825   0.89459   0.90206
 Alpha virt. eigenvalues --    0.91323   0.91746   0.92148   0.93030   0.93659
 Alpha virt. eigenvalues --    0.94332   0.95003   0.95941   0.96536   0.96776
 Alpha virt. eigenvalues --    0.97439   0.98587   0.98882   0.99613   1.00655
 Alpha virt. eigenvalues --    1.01641   1.02658   1.03080   1.04733   1.05394
 Alpha virt. eigenvalues --    1.06444   1.06738   1.08429   1.09236   1.09809
 Alpha virt. eigenvalues --    1.10096   1.10840   1.11046   1.11253   1.13528
 Alpha virt. eigenvalues --    1.14650   1.17294   1.18993   1.21774   1.24483
 Alpha virt. eigenvalues --    1.25150   1.25408   1.27310   1.27568   1.29802
 Alpha virt. eigenvalues --    1.29857   1.30444   1.32595   1.34120   1.34387
 Alpha virt. eigenvalues --    1.34878   1.36570   1.37204   1.37539   1.38602
 Alpha virt. eigenvalues --    1.40341   1.42519   1.42755   1.44395   1.45119
 Alpha virt. eigenvalues --    1.45401   1.45628   1.46125   1.47188   1.48406
 Alpha virt. eigenvalues --    1.50023   1.51092   1.52249   1.52582   1.53084
 Alpha virt. eigenvalues --    1.53221   1.54141   1.54876   1.55719   1.56042
 Alpha virt. eigenvalues --    1.56547   1.57410   1.58283   1.59961   1.60136
 Alpha virt. eigenvalues --    1.61160   1.61921   1.64451   1.65022   1.66149
 Alpha virt. eigenvalues --    1.66880   1.67827   1.68204   1.69527   1.70306
 Alpha virt. eigenvalues --    1.70569   1.71779   1.71982   1.72827   1.74266
 Alpha virt. eigenvalues --    1.74505   1.75165   1.75860   1.76713   1.77348
 Alpha virt. eigenvalues --    1.78475   1.78896   1.80854   1.82350   1.82625
 Alpha virt. eigenvalues --    1.83116   1.84146   1.85084   1.86695   1.87327
 Alpha virt. eigenvalues --    1.88094   1.88637   1.88841   1.89954   1.90061
 Alpha virt. eigenvalues --    1.90789   1.91616   1.91909   1.93345   1.94943
 Alpha virt. eigenvalues --    1.95964   1.96366   1.96815   1.97757   1.98315
 Alpha virt. eigenvalues --    2.00195   2.02953   2.04225   2.04636   2.05531
 Alpha virt. eigenvalues --    2.06020   2.07541   2.08404   2.09280   2.09786
 Alpha virt. eigenvalues --    2.10631   2.12005   2.14316   2.14471   2.17573
 Alpha virt. eigenvalues --    2.19021   2.21615   2.22821   2.23415   2.23856
 Alpha virt. eigenvalues --    2.25124   2.26542   2.28011   2.29166   2.30283
 Alpha virt. eigenvalues --    2.32059   2.34481   2.34707   2.37353   2.38855
 Alpha virt. eigenvalues --    2.41003   2.41780   2.42891   2.45140   2.46597
 Alpha virt. eigenvalues --    2.48344   2.50914   2.51722   2.52631   2.53713
 Alpha virt. eigenvalues --    2.54924   2.56385   2.57120   2.57541   2.58768
 Alpha virt. eigenvalues --    2.59129   2.60628   2.61010   2.61918   2.62502
 Alpha virt. eigenvalues --    2.63376   2.63911   2.64176   2.64568   2.65395
 Alpha virt. eigenvalues --    2.65433   2.66502   2.67144   2.67622   2.69457
 Alpha virt. eigenvalues --    2.70402   2.72183   2.73412   2.74214   2.75582
 Alpha virt. eigenvalues --    2.76663   2.77575   2.78911   2.80875   2.83242
 Alpha virt. eigenvalues --    2.83830   2.85936   2.86404   2.87426   2.87997
 Alpha virt. eigenvalues --    2.88861   2.89565   2.90875   2.92123   2.93478
 Alpha virt. eigenvalues --    2.95540   2.96616   2.97372   2.98542   2.99125
 Alpha virt. eigenvalues --    3.01978   3.02669   3.03023   3.05822   3.08945
 Alpha virt. eigenvalues --    3.09732   3.10911   3.14642   3.15520   3.16918
 Alpha virt. eigenvalues --    3.18535   3.19860   3.22875   3.24798   3.26703
 Alpha virt. eigenvalues --    3.28418   3.29856   3.30503   3.32183   3.33624
 Alpha virt. eigenvalues --    3.34169   3.34522   3.37319   3.40527   3.44315
 Alpha virt. eigenvalues --    3.45018   3.48523   3.50307   3.51764   3.56908
 Alpha virt. eigenvalues --    3.59749   3.62498   3.67883   3.71415   3.74633
 Alpha virt. eigenvalues --    3.75408   3.79444   3.81189   3.86362   3.87981
 Alpha virt. eigenvalues --    3.88980   3.92069   3.92918   3.94644   3.96437
 Alpha virt. eigenvalues --    4.01346   4.02609   4.05109   4.07906   4.09992
 Alpha virt. eigenvalues --    4.11946   4.17521   4.32629   4.43190   4.53065
 Alpha virt. eigenvalues --    4.62754   4.68841   4.76907   4.79120   4.81258
 Alpha virt. eigenvalues --    4.90782   4.99974   5.11879   5.21445   5.53913
 Alpha virt. eigenvalues --    5.80719   7.69152   7.79454   7.82097  17.11259
 Alpha virt. eigenvalues --   17.17909  17.19690  17.24229  17.28719  17.43540
 Alpha virt. eigenvalues --   17.44556  17.49554  17.49711  23.42263  23.48531
 Alpha virt. eigenvalues --   23.56374  23.68994  23.75905  23.79035  23.83166
 Alpha virt. eigenvalues --   23.89118  23.91548  24.04150  24.04699  24.05724
 Alpha virt. eigenvalues --   24.06438  24.09771  24.12702  24.15363  24.16027
 Alpha virt. eigenvalues --   24.44019  35.47477  35.58531  35.60572  35.81065
 Alpha virt. eigenvalues --   49.84264  49.99687 188.79000 188.91891 188.94441
          Condensed to atoms (all electrons):
               1          2          3          4          5          6
     1  N    6.596564   0.296844  -0.032321   0.005370   0.000268   0.004521
     2  C    0.296844   4.967730   0.500421  -0.055874  -0.040814  -0.041523
     3  C   -0.032321   0.500421   4.857205   0.517359  -0.060249  -0.040940
     4  C    0.005370  -0.055874   0.517359   4.845456   0.518057  -0.053526
     5  C    0.000268  -0.040814  -0.060249   0.518057   4.869684   0.517961
     6  C    0.004521  -0.041523  -0.040940  -0.053526   0.517961   4.832273
     7  C   -0.056675   0.477299  -0.043123  -0.039286  -0.061919   0.519299
     8  C    0.002319   0.000003   0.000009   0.000000   0.000000   0.000005
     9  C    0.006913  -0.000259   0.000004   0.000000   0.000000  -0.000001
    10  C   -0.016938   0.001273  -0.000334   0.000015  -0.000003   0.000014
    11  N   -0.002412  -0.000277  -0.000012   0.000000   0.000000  -0.000001
    12  S   -0.000581   0.000088  -0.000006   0.000000   0.000000   0.000002
    13  N   -0.000112   0.000006   0.000000   0.000000   0.000000   0.000000
    14  C    0.314253  -0.063253   0.004855  -0.000136  -0.000064   0.000636
    15  S   -0.051551   0.007466  -0.000326   0.000071  -0.000307   0.000782
    16  O    0.000000   0.000000   0.000000   0.000000   0.000000   0.000000
    17  C    0.000000   0.000000   0.000000   0.000000   0.000000   0.000000
    18  C    0.000000   0.000000   0.000000   0.000000   0.000000   0.000000
    19  C    0.000000   0.000000   0.000000   0.000000   0.000000   0.000000
    20  N    0.000000   0.000000   0.000000   0.000000   0.000000   0.000000
    21  C    0.000000   0.000000   0.000000   0.000000   0.000000   0.000000
    22  C    0.000000   0.000000   0.000000   0.000000   0.000000   0.000000
    23  C    0.000000   0.000000   0.000000   0.000000   0.000000   0.000000
    24  C    0.000000   0.000000   0.000000   0.000000   0.000000   0.000000
    25  C   -0.000065  -0.000011   0.000000   0.000000   0.000000   0.000000
    26  S    0.000001   0.000007   0.000001   0.000000   0.000000  -0.000005
    27  O    0.000000   0.000000   0.000000   0.000000   0.000000   0.000000
    28  H    0.384850  -0.039195  -0.006289   0.000202   0.000005  -0.000151
    29  H    0.001781  -0.058839   0.413491  -0.026754   0.007465  -0.000477
    30  H   -0.000225   0.008791  -0.038083   0.412824  -0.042352   0.007432
    31  H    0.000014  -0.000744   0.008129  -0.042221   0.416317  -0.042408
    32  H   -0.000226   0.008247  -0.000505   0.007464  -0.042658   0.414499
    33  H   -0.004452  -0.050711   0.005563  -0.000611   0.007628  -0.028898
    34  H    0.000000   0.000000   0.000000   0.000000   0.000000   0.000000
    35  H    0.000000   0.000000   0.000000   0.000000   0.000000   0.000000
    36  H    0.000000   0.000000   0.000000   0.000000   0.000000   0.000000
    37  H    0.000000   0.000000   0.000000   0.000000   0.000000   0.000000
               7          8          9         10         11         12
     1  N   -0.056675   0.002319   0.006913  -0.016938  -0.002412  -0.000581
     2  C    0.477299   0.000003  -0.000259   0.001273  -0.000277   0.000088
     3  C   -0.043123   0.000009   0.000004  -0.000334  -0.000012  -0.000006
     4  C   -0.039286   0.000000   0.000000   0.000015   0.000000   0.000000
     5  C   -0.061919   0.000000   0.000000  -0.000003   0.000000   0.000000
     6  C    0.519299   0.000005  -0.000001   0.000014  -0.000001   0.000002
     7  C    4.888150  -0.000037  -0.000029   0.000853  -0.000041   0.000016
     8  C   -0.000037   5.692916   0.281405  -0.039984   0.017259   0.016687
     9  C   -0.000029   0.281405   5.112212   0.279789  -0.150628  -0.172130
    10  C    0.000853  -0.039984   0.279789   5.290738   0.511547  -0.187352
    11  N   -0.000041   0.017259  -0.150628   0.511547   6.896338   0.321708
    12  S    0.000016   0.016687  -0.172130  -0.187352   0.321708  15.164922
    13  N    0.000000  -0.093796   0.535949  -0.151935  -0.049481   0.315226
    14  C   -0.005033  -0.112000  -0.030506   0.248690  -0.082358   0.017996
    15  S   -0.003814   0.325238  -0.089393  -0.106421   0.006216   0.001305
    16  O    0.000000   0.000000   0.000000   0.000000   0.000000   0.000000
    17  C    0.000000   0.000000   0.000000   0.000000   0.000000   0.000000
    18  C    0.000000   0.000006   0.000000   0.000000   0.000000   0.000000
    19  C    0.000000  -0.000002   0.000000   0.000000   0.000000   0.000000
    20  N    0.000000   0.000000   0.000000   0.000000   0.000000   0.000000
    21  C    0.000000  -0.000495   0.000000   0.000000   0.000000   0.000000
    22  C    0.000000   0.001298  -0.000097   0.000011   0.000000  -0.000002
    23  C    0.000000   0.011084   0.000335  -0.000028   0.000000   0.000005
    24  C    0.000000  -0.049279  -0.012079   0.000702   0.000001   0.000075
    25  C    0.000017   0.315059  -0.008616   0.018817  -0.000459  -0.002408
    26  S   -0.000030  -0.071960   0.004494  -0.000259  -0.000007   0.000097
    27  O    0.000000   0.000000   0.000000   0.000000   0.000000   0.000000
    28  H    0.003343  -0.000139   0.002371  -0.003306   0.011333  -0.000647
    29  H    0.006328   0.000000  -0.000005  -0.000013  -0.000018   0.000001
    30  H   -0.000597   0.000000   0.000000   0.000000   0.000000   0.000000
    31  H    0.008708   0.000000   0.000000   0.000000   0.000000   0.000000
    32  H   -0.039187  -0.000002   0.000000   0.000001   0.000000   0.000000
    33  H    0.416127  -0.000672   0.000142   0.000445  -0.000016  -0.000051
    34  H    0.000000   0.000000   0.000000   0.000000   0.000000   0.000000
    35  H    0.000000   0.000013   0.000001   0.000000   0.000000   0.000000
    36  H    0.000000  -0.000123  -0.000047  -0.000001   0.000000   0.000000
    37  H    0.000000  -0.018725   0.004371   0.001120   0.000019  -0.000351
              13         14         15         16         17         18
     1  N   -0.000112   0.314253  -0.051551   0.000000   0.000000   0.000000
     2  C    0.000006  -0.063253   0.007466   0.000000   0.000000   0.000000
     3  C    0.000000   0.004855  -0.000326   0.000000   0.000000   0.000000
     4  C    0.000000  -0.000136   0.000071   0.000000   0.000000   0.000000
     5  C    0.000000  -0.000064  -0.000307   0.000000   0.000000   0.000000
     6  C    0.000000   0.000636   0.000782   0.000000   0.000000   0.000000
     7  C    0.000000  -0.005033  -0.003814   0.000000   0.000000   0.000000
     8  C   -0.093796  -0.112000   0.325238   0.000000   0.000000   0.000006
     9  C    0.535949  -0.030506  -0.089393   0.000000   0.000000   0.000000
    10  C   -0.151935   0.248690  -0.106421   0.000000   0.000000   0.000000
    11  N   -0.049481  -0.082358   0.006216   0.000000   0.000000   0.000000
    12  S    0.315226   0.017996   0.001305   0.000000   0.000000   0.000000
    13  N    6.897719   0.018811   0.007048   0.000000   0.000000   0.000000
    14  C    0.018811   5.354290   0.362770   0.000000   0.000000   0.000000
    15  S    0.007048   0.362770  15.247806   0.000000   0.000000  -0.000001
    16  O    0.000000   0.000000   0.000000   7.803376   0.389532  -0.097471
    17  C    0.000000   0.000000   0.000000   0.389532   4.410464   0.144629
    18  C    0.000000   0.000000  -0.000001  -0.097471   0.144629   5.994009
    19  C    0.000000   0.000000   0.000000  -0.017738  -0.064016   0.074712
    20  N    0.000000   0.000000   0.000000  -0.002299  -0.003426  -0.130512
    21  C    0.000000   0.000000   0.000059   0.008974  -0.018083   0.443402
    22  C    0.000008  -0.000008  -0.001806  -0.000084   0.013810  -0.077213
    23  C   -0.000182   0.000009  -0.000303  -0.000001   0.000115  -0.012641
    24  C   -0.002893  -0.000030   0.004255   0.000000  -0.000004   0.000146
    25  C   -0.006169  -0.000466  -0.072186   0.000000   0.000009  -0.000143
    26  S    0.000117  -0.001651   0.009661  -0.000005  -0.000497   0.006858
    27  O    0.000000   0.000000   0.000000  -0.067409   0.699669  -0.139894
    28  H    0.000030  -0.049954   0.003782   0.000000   0.000000   0.000000
    29  H    0.000000   0.000003  -0.000155   0.000000   0.000000   0.000000
    30  H    0.000000   0.000010  -0.000004   0.000000   0.000000   0.000000
    31  H    0.000000  -0.000001   0.000002   0.000000   0.000000   0.000000
    32  H    0.000000   0.000023   0.000303   0.000000   0.000000   0.000000
    33  H   -0.000003   0.000468  -0.008949   0.000000   0.000000   0.000000
    34  H    0.000000   0.000000   0.000000   0.308000  -0.028886   0.008337
    35  H    0.000000   0.000000   0.000002   0.001199  -0.009822  -0.040579
    36  H   -0.000019   0.000000  -0.000003  -0.000008   0.000067   0.002850
    37  H    0.010791  -0.000084  -0.000398   0.000000   0.000000  -0.000007
              19         20         21         22         23         24
     1  N    0.000000   0.000000   0.000000   0.000000   0.000000   0.000000
     2  C    0.000000   0.000000   0.000000   0.000000   0.000000   0.000000
     3  C    0.000000   0.000000   0.000000   0.000000   0.000000   0.000000
     4  C    0.000000   0.000000   0.000000   0.000000   0.000000   0.000000
     5  C    0.000000   0.000000   0.000000   0.000000   0.000000   0.000000
     6  C    0.000000   0.000000   0.000000   0.000000   0.000000   0.000000
     7  C    0.000000   0.000000   0.000000   0.000000   0.000000   0.000000
     8  C   -0.000002   0.000000  -0.000495   0.001298   0.011084  -0.049279
     9  C    0.000000   0.000000   0.000000  -0.000097   0.000335  -0.012079
    10  C    0.000000   0.000000   0.000000   0.000011  -0.000028   0.000702
    11  N    0.000000   0.000000   0.000000   0.000000   0.000000   0.000001
    12  S    0.000000   0.000000   0.000000  -0.000002   0.000005   0.000075
    13  N    0.000000   0.000000   0.000000   0.000008  -0.000182  -0.002893
    14  C    0.000000   0.000000   0.000000  -0.000008   0.000009  -0.000030
    15  S    0.000000   0.000000   0.000059  -0.001806  -0.000303   0.004255
    16  O   -0.017738  -0.002299   0.008974  -0.000084  -0.000001   0.000000
    17  C   -0.064016  -0.003426  -0.018083   0.013810   0.000115  -0.000004
    18  C    0.074712  -0.130512   0.443402  -0.077213  -0.012641   0.000146
    19  C    5.042660   1.059633  -0.063460  -0.037319  -0.002719  -0.000203
    20  N    1.059633   6.296260   0.003280  -0.003095  -0.003003  -0.000012
    21  C   -0.063460   0.003280   4.870810   0.361717  -0.036459   0.007783
    22  C   -0.037319  -0.003095   0.361717   5.545901   0.428457  -0.061563
    23  C   -0.002719  -0.003003  -0.036459   0.428457   4.867479   0.540031
    24  C   -0.000203  -0.000012   0.007783  -0.061563   0.540031   4.840594
    25  C   -0.000145  -0.000006  -0.002773  -0.106085  -0.042439   0.436999
    26  S   -0.000080   0.000056  -0.041466   0.288396  -0.112422  -0.088851
    27  O    0.002217  -0.000014   0.014730   0.002647  -0.000002   0.000000
    28  H    0.000000   0.000000   0.000000   0.000000   0.000000   0.000000
    29  H    0.000000   0.000000   0.000000   0.000000   0.000000   0.000000
    30  H    0.000000   0.000000   0.000000   0.000000   0.000000   0.000000
    31  H    0.000000   0.000000   0.000000   0.000000   0.000000   0.000000
    32  H    0.000000   0.000000   0.000000   0.000000   0.000000   0.000000
    33  H    0.000000   0.000000   0.000000   0.000000   0.000000  -0.000001
    34  H    0.006403   0.002716  -0.000870  -0.000030   0.000002   0.000000
    35  H    0.006949  -0.000017   0.406017  -0.034721   0.005463  -0.000363
    36  H    0.002355   0.003971  -0.008844  -0.050637   0.420577  -0.035644
    37  H    0.000002  -0.000009  -0.000089   0.010698  -0.041818   0.426586
              25         26         27         28         29         30
     1  N   -0.000065   0.000001   0.000000   0.384850   0.001781  -0.000225
     2  C   -0.000011   0.000007   0.000000  -0.039195  -0.058839   0.008791
     3  C    0.000000   0.000001   0.000000  -0.006289   0.413491  -0.038083
     4  C    0.000000   0.000000   0.000000   0.000202  -0.026754   0.412824
     5  C    0.000000   0.000000   0.000000   0.000005   0.007465  -0.042352
     6  C    0.000000  -0.000005   0.000000  -0.000151  -0.000477   0.007432
     7  C    0.000017  -0.000030   0.000000   0.003343   0.006328  -0.000597
     8  C    0.315059  -0.071960   0.000000  -0.000139   0.000000   0.000000
     9  C   -0.008616   0.004494   0.000000   0.002371  -0.000005   0.000000
    10  C    0.018817  -0.000259   0.000000  -0.003306  -0.000013   0.000000
    11  N   -0.000459  -0.000007   0.000000   0.011333  -0.000018   0.000000
    12  S   -0.002408   0.000097   0.000000  -0.000647   0.000001   0.000000
    13  N   -0.006169   0.000117   0.000000   0.000030   0.000000   0.000000
    14  C   -0.000466  -0.001651   0.000000  -0.049954   0.000003   0.000010
    15  S   -0.072186   0.009661   0.000000   0.003782  -0.000155  -0.000004
    16  O    0.000000  -0.000005  -0.067409   0.000000   0.000000   0.000000
    17  C    0.000009  -0.000497   0.699669   0.000000   0.000000   0.000000
    18  C   -0.000143   0.006858  -0.139894   0.000000   0.000000   0.000000
    19  C   -0.000145  -0.000080   0.002217   0.000000   0.000000   0.000000
    20  N   -0.000006   0.000056  -0.000014   0.000000   0.000000   0.000000
    21  C   -0.002773  -0.041466   0.014730   0.000000   0.000000   0.000000
    22  C   -0.106085   0.288396   0.002647   0.000000   0.000000   0.000000
    23  C   -0.042439  -0.112422  -0.000002   0.000000   0.000000   0.000000
    24  C    0.436999  -0.088851   0.000000   0.000000   0.000000   0.000000
    25  C    5.376466   0.322745   0.000000   0.000021   0.000000   0.000000
    26  S    0.322745  15.353343  -0.000511  -0.000006   0.000000   0.000000
    27  O    0.000000  -0.000511   7.789336   0.000000   0.000000   0.000000
    28  H    0.000021  -0.000006   0.000000   0.441732   0.001649  -0.000003
    29  H    0.000000   0.000000   0.000000   0.001649   0.560676  -0.008961
    30  H    0.000000   0.000000   0.000000  -0.000003  -0.008961   0.564956
    31  H    0.000000   0.000000   0.000000  -0.000003  -0.000298  -0.007703
    32  H    0.000000  -0.000002   0.000000   0.000025   0.000080  -0.000371
    33  H    0.000029   0.000138   0.000000  -0.000389  -0.000344   0.000062
    34  H    0.000000   0.000009   0.003319   0.000000   0.000000   0.000000
    35  H   -0.000038  -0.002955   0.025303   0.000000   0.000000   0.000000
    36  H    0.010248   0.006924   0.000000   0.000000   0.000000   0.000000
    37  H   -0.046167   0.007047   0.000000   0.000000   0.000000   0.000000
              31         32         33         34         35         36
     1  N    0.000014  -0.000226  -0.004452   0.000000   0.000000   0.000000
     2  C   -0.000744   0.008247  -0.050711   0.000000   0.000000   0.000000
     3  C    0.008129  -0.000505   0.005563   0.000000   0.000000   0.000000
     4  C   -0.042221   0.007464  -0.000611   0.000000   0.000000   0.000000
     5  C    0.416317  -0.042658   0.007628   0.000000   0.000000   0.000000
     6  C   -0.042408   0.414499  -0.028898   0.000000   0.000000   0.000000
     7  C    0.008708  -0.039187   0.416127   0.000000   0.000000   0.000000
     8  C    0.000000  -0.000002  -0.000672   0.000000   0.000013  -0.000123
     9  C    0.000000   0.000000   0.000142   0.000000   0.000001  -0.000047
    10  C    0.000000   0.000001   0.000445   0.000000   0.000000  -0.000001
    11  N    0.000000   0.000000  -0.000016   0.000000   0.000000   0.000000
    12  S    0.000000   0.000000  -0.000051   0.000000   0.000000   0.000000
    13  N    0.000000   0.000000  -0.000003   0.000000   0.000000  -0.000019
    14  C   -0.000001   0.000023   0.000468   0.000000   0.000000   0.000000
    15  S    0.000002   0.000303  -0.008949   0.000000   0.000002  -0.000003
    16  O    0.000000   0.000000   0.000000   0.308000   0.001199  -0.000008
    17  C    0.000000   0.000000   0.000000  -0.028886  -0.009822   0.000067
    18  C    0.000000   0.000000   0.000000   0.008337  -0.040579   0.002850
    19  C    0.000000   0.000000   0.000000   0.006403   0.006949   0.002355
    20  N    0.000000   0.000000   0.000000   0.002716  -0.000017   0.003971
    21  C    0.000000   0.000000   0.000000  -0.000870   0.406017  -0.008844
    22  C    0.000000   0.000000   0.000000  -0.000030  -0.034721  -0.050637
    23  C    0.000000   0.000000   0.000000   0.000002   0.005463   0.420577
    24  C    0.000000   0.000000  -0.000001   0.000000  -0.000363  -0.035644
    25  C    0.000000   0.000000   0.000029   0.000000  -0.000038   0.010248
    26  S    0.000000  -0.000002   0.000138   0.000009  -0.002955   0.006924
    27  O    0.000000   0.000000   0.000000   0.003319   0.025303   0.000000
    28  H   -0.000003   0.000025  -0.000389   0.000000   0.000000   0.000000
    29  H   -0.000298   0.000080  -0.000344   0.000000   0.000000   0.000000
    30  H   -0.007703  -0.000371   0.000062   0.000000   0.000000   0.000000
    31  H    0.565789  -0.007677  -0.000303   0.000000   0.000000   0.000000
    32  H   -0.007677   0.563026  -0.008550   0.000000   0.000000   0.000000
    33  H   -0.000303  -0.008550   0.548068   0.000000   0.000000   0.000000
    34  H    0.000000   0.000000   0.000000   0.431514  -0.000293  -0.000003
    35  H    0.000000   0.000000   0.000000  -0.000293   0.499212  -0.000039
    36  H    0.000000   0.000000   0.000000  -0.000003  -0.000039   0.526389
    37  H    0.000000   0.000000   0.000000   0.000000   0.000008  -0.004521
              37
     1  N    0.000000
     2  C    0.000000
     3  C    0.000000
     4  C    0.000000
     5  C    0.000000
     6  C    0.000000
     7  C    0.000000
     8  C   -0.018725
     9  C    0.004371
    10  C    0.001120
    11  N    0.000019
    12  S   -0.000351
    13  N    0.010791
    14  C   -0.000084
    15  S   -0.000398
    16  O    0.000000
    17  C    0.000000
    18  C   -0.000007
    19  C    0.000002
    20  N   -0.000009
    21  C   -0.000089
    22  C    0.010698
    23  C   -0.041818
    24  C    0.426586
    25  C   -0.046167
    26  S    0.007047
    27  O    0.000000
    28  H    0.000000
    29  H    0.000000
    30  H    0.000000
    31  H    0.000000
    32  H    0.000000
    33  H    0.000000
    34  H    0.000000
    35  H    0.000008
    36  H   -0.004521
    37  H    0.535509
 Mulliken charges:
               1
     1  N   -0.448142
     2  C    0.083326
     3  C   -0.084848
     4  C   -0.088409
     5  C   -0.089018
     6  C   -0.089494
     7  C   -0.070368
     8  C   -0.276084
     9  C    0.235803
    10  C    0.152561
    11  N   -0.478710
    12  S    0.525398
    13  N   -0.481113
    14  C    0.022731
    15  S    0.358850
    16  O   -0.326066
    17  C    0.466439
    18  C   -0.176488
    19  C   -0.009248
    20  N   -0.223520
    21  C    0.055768
    22  C   -0.280283
    23  C   -0.021539
    24  C   -0.006249
    25  C   -0.192233
    26  S    0.320814
    27  O   -0.329390
    28  H    0.250741
    29  H    0.104388
    30  H    0.104227
    31  H    0.102399
    32  H    0.105511
    33  H    0.125279
    34  H    0.269783
    35  H    0.144658
    36  H    0.126510
    37  H    0.116017
 Sum of Mulliken charges =   0.00000
 Mulliken charges with hydrogens summed into heavy atoms:
               1
     1  N   -0.197401
     2  C    0.083326
     3  C    0.019539
     4  C    0.015818
     5  C    0.013381
     6  C    0.016017
     7  C    0.054911
     8  C   -0.276084
     9  C    0.235803
    10  C    0.152561
    11  N   -0.478710
    12  S    0.525398
    13  N   -0.481113
    14  C    0.022731
    15  S    0.358850
    16  O   -0.056283
    17  C    0.466439
    18  C   -0.176488
    19  C   -0.009248
    20  N   -0.223520
    21  C    0.200426
    22  C   -0.280283
    23  C    0.104971
    24  C    0.109768
    25  C   -0.192233
    26  S    0.320814
    27  O   -0.329390
 Electronic spatial extent (au):  <R**2>=          17678.3899
 Charge=              0.0000 electrons
 Dipole moment (field-independent basis, Debye):
    X=             -9.2155    Y=              0.8091    Z=             -1.2622  Tot=              9.3367
 Quadrupole moment (field-independent basis, Debye-Ang):
   XX=           -185.8012   YY=           -180.5958   ZZ=           -175.1705
   XY=             19.2633   XZ=             -5.5627   YZ=             -4.2914
 Traceless Quadrupole moment (field-independent basis, Debye-Ang):
   XX=             -5.2786   YY=             -0.0733   ZZ=              5.3520
   XY=             19.2633   XZ=             -5.5627   YZ=             -4.2914
 Octapole moment (field-independent basis, Debye-Ang**2):
  XXX=           -331.4873  YYY=             25.0681  ZZZ=              7.4514  XYY=           -153.5204
  XXY=             47.7931  XXZ=            -77.2836  XZZ=              8.8946  YZZ=             -5.4717
  YYZ=              6.4547  XYZ=             -8.0765
 Hexadecapole moment (field-independent basis, Debye-Ang**3):
 XXXX=         -18995.3545 YYYY=          -4672.1853 ZZZZ=           -511.4988 XXXY=            991.4883
 XXXZ=             38.5642 YYYX=            253.7263 YYYZ=            -36.7665 ZZZX=             18.4421
 ZZZY=             -0.1875 XXYY=          -4445.2054 XXZZ=          -3212.4319 YYZZ=           -868.1772
 XXYZ=            -35.9038 YYXZ=           -108.9120 ZZXY=            -61.0194
 N-N= 2.601630848655D+03 E-N=-1.051628277341D+04  KE= 2.250938732304D+03
 Calling FoFJK, ICntrl=      2127 FMM=F ISym2X=0 I1Cent= 0 IOpClX= 0 NMat=1 NMatS=1 NMatT=0.
 ***** Axes restored to original set *****
 -------------------------------------------------------------------
 Center     Atomic                   Forces (Hartrees/Bohr)
 Number     Number              X              Y              Z
 -------------------------------------------------------------------
      1        7          -0.001360701   -0.014544413    0.005694830
      2        6           0.016610273    0.004138262   -0.000778621
      3        6           0.003952248   -0.003021471   -0.004150680
      4        6          -0.005327608   -0.000054037    0.001762379
      5        6           0.004757543   -0.000056750    0.000281602
      6        6          -0.004731278   -0.001189595   -0.002611118
      7        6           0.001013455    0.005154548    0.004851967
      8        6           0.006510299    0.033275062   -0.007802718
      9        6          -0.020316809    0.031977146   -0.000165477
     10        6           0.002758253   -0.040499076    0.004548559
     11        7          -0.032584974    0.012527330    0.009940112
     12       16           0.014282216    0.005468305   -0.005293595
     13        7          -0.012941772   -0.035236201    0.008198023
     14        6           0.030015537    0.002731893   -0.007570395
     15       16           0.010674891   -0.003482259   -0.000674769
     16        8           0.002928164    0.014135559    0.001900134
     17        6           0.016002885    0.008489489   -0.002351451
     18        6           0.005351152    0.010151210   -0.000633349
     19        6          -0.007023454    0.002043577   -0.001500591
     20        7           0.002626018   -0.000530868    0.000323031
     21        6           0.002153785   -0.023908217   -0.002940667
     22        6          -0.007583414    0.005900570   -0.007257043
     23        6          -0.007622648   -0.017377458    0.005935757
     24        6          -0.008933399    0.020900092   -0.002277497
     25        6          -0.004198659   -0.019568065   -0.001481787
     26       16           0.026324954   -0.002682582    0.002837005
     27        8          -0.033027132    0.001390639    0.002800911
     28        1          -0.006869899    0.009517047   -0.004700984
     29        1          -0.001103826    0.002001106    0.001156753
     30        1          -0.002115660    0.000825033    0.000908224
     31        1          -0.001866123   -0.000043799   -0.000492058
     32        1          -0.001837330   -0.001376557   -0.001008714
     33        1          -0.000797647   -0.001685314   -0.002639230
     34        1           0.012842765   -0.012056486   -0.001240276
     35        1          -0.004309827    0.005688617    0.005555564
     36        1           0.002658857    0.000496368    0.000805290
     37        1           0.003088864    0.000501296    0.000070880
 -------------------------------------------------------------------
 Cartesian Forces:  Max     0.040499076 RMS     0.011383284

 GradGradGradGradGradGradGradGradGradGradGradGradGradGradGradGradGradGrad
 Berny optimization.
 FormGI is forming the generalized inverse of G from B-inverse, IUseBI=4.
 Internal  Forces:  Max     0.033015578 RMS     0.007207647
 Search for a local minimum.
 Step number   1 out of a maximum of  200
 All quantities printed in internal units (Hartrees-Bohrs-Radians)
 Mixed Optimization -- RFO/linear search
 Second derivative matrix not updated -- first step.
 ITU=  0
     Eigenvalues ---    0.00943   0.01392   0.01495   0.01515   0.01683
     Eigenvalues ---    0.01733   0.01733   0.01796   0.01846   0.01879
     Eigenvalues ---    0.01900   0.01930   0.01961   0.01994   0.02067
     Eigenvalues ---    0.02080   0.02096   0.02097   0.02101   0.02126
     Eigenvalues ---    0.02150   0.02152   0.02155   0.02161   0.02175
     Eigenvalues ---    0.02191   0.02261   0.02288   0.02315   0.02318
     Eigenvalues ---    0.02334   0.02411   0.02803   0.04875   0.04875
     Eigenvalues ---    0.15180   0.15993   0.15994   0.15997   0.15997
     Eigenvalues ---    0.15999   0.16000   0.16000   0.16000   0.16000
     Eigenvalues ---    0.21999   0.22000   0.22002   0.22355   0.22707
     Eigenvalues ---    0.23470   0.24552   0.24917   0.24980   0.24987
     Eigenvalues ---    0.24988   0.24991   0.24992   0.24996   0.24997
     Eigenvalues ---    0.24998   0.24999   0.24999   0.25000   0.25000
     Eigenvalues ---    0.31613   0.31665   0.32440   0.33367   0.33822
     Eigenvalues ---    0.34537   0.35137   0.35162   0.35179   0.35197
     Eigenvalues ---    0.35200   0.35249   0.35491   0.35563   0.36000
     Eigenvalues ---    0.38924   0.40050   0.40896   0.41710   0.42040
     Eigenvalues ---    0.42477   0.43358   0.43478   0.44287   0.45550
     Eigenvalues ---    0.45609   0.46049   0.46272   0.46793   0.46817
     Eigenvalues ---    0.48391   0.49611   0.51912   0.51918   0.54716
     Eigenvalues ---    0.55790   0.55873   0.57992   0.94168   1.28238
 RFO step:  Lambda=-2.81284838D-02 EMin= 9.42900774D-03
 Linear search not attempted -- first point.
[...]
    14  C    0.001804  -0.087043  -0.041532   0.287069  -0.075233   0.016496
    15  S   -0.004218   0.285329  -0.086885  -0.097807   0.006072   0.001536
    16  O    0.000000   0.000000   0.000000   0.000000   0.000000   0.000000
    17  C    0.000000   0.000000   0.000000   0.000000   0.000000   0.000000
    18  C    0.000000   0.000006   0.000000   0.000000   0.000000   0.000000
    19  C    0.000000  -0.000001   0.000000   0.000000   0.000000   0.000000
    20  N    0.000000   0.000000   0.000000   0.000000   0.000000   0.000000
    21  C    0.000000  -0.000641   0.000002   0.000000   0.000000   0.000000
    22  C    0.000000   0.001382  -0.000247   0.000013   0.000000  -0.000001
    23  C    0.000000   0.013458  -0.000063  -0.000036   0.000000  -0.000001
    24  C    0.000000  -0.042636  -0.019958   0.000348   0.000000   0.000176
    25  C    0.000007   0.335043   0.012919   0.017798  -0.000455  -0.002243
    26  S   -0.000069  -0.077584   0.006834  -0.000217  -0.000007   0.000100
    27  O    0.000000   0.000000   0.000000   0.000000   0.000000   0.000000
    28  H    0.004276  -0.000205   0.003125  -0.008253   0.016589  -0.000838
    29  H    0.006429  -0.000002  -0.000006  -0.000086  -0.000106  -0.000001
    30  H   -0.000511   0.000000   0.000000   0.000000   0.000000   0.000000
    31  H    0.009133   0.000000   0.000000   0.000000   0.000000   0.000000
    32  H   -0.037824   0.000000   0.000000  -0.000001   0.000000   0.000000
    33  H    0.397074  -0.000746  -0.000185   0.000546  -0.000005   0.000000
    34  H    0.000000   0.000000   0.000000   0.000000   0.000000   0.000000
    35  H    0.000000   0.000020   0.000001   0.000000   0.000000   0.000000
    36  H    0.000000  -0.000058  -0.000036  -0.000001   0.000000  -0.000002
    37  H    0.000000  -0.024345   0.005959   0.001750   0.000062  -0.000106
              13         14         15         16         17         18
     1  N   -0.000117   0.323596  -0.044309   0.000000   0.000000   0.000000
     2  C    0.000002  -0.073347  -0.003609   0.000000   0.000000   0.000000
     3  C    0.000000   0.008034  -0.000045   0.000000   0.000000   0.000000
     4  C    0.000000  -0.000193   0.000059   0.000000   0.000000   0.000000
     5  C    0.000000   0.000017  -0.000152   0.000000   0.000000   0.000000
     6  C    0.000000   0.000449   0.001598   0.000000   0.000000   0.000000
     7  C    0.000000   0.001804  -0.004218   0.000000   0.000000   0.000000
     8  C   -0.081779  -0.087043   0.285329   0.000000   0.000000   0.000006
     9  C    0.523908  -0.041532  -0.086885   0.000000   0.000000   0.000000
    10  C   -0.138625   0.287069  -0.097807   0.000000   0.000000   0.000000
    11  N   -0.056971  -0.075233   0.006072   0.000000   0.000000   0.000000
    12  S    0.316122   0.016496   0.001536   0.000000   0.000000   0.000000
    13  N    6.912116   0.016467   0.007428   0.000000   0.000000   0.000000
    14  C    0.016467   5.298861   0.336258   0.000000   0.000000   0.000000
    15  S    0.007428   0.336258  15.244899   0.000000   0.000000   0.000003
    16  O    0.000000   0.000000   0.000000   7.785507   0.390043  -0.097566
    17  C    0.000000   0.000000   0.000000   0.390043   4.407781   0.145913
    18  C    0.000000   0.000000   0.000003  -0.097566   0.145913   6.045032
    19  C    0.000000   0.000000   0.000000  -0.021591  -0.066449   0.079456
    20  N    0.000000   0.000000   0.000000  -0.002240  -0.002366  -0.127716
    21  C    0.000000   0.000000   0.000147   0.009640  -0.010007   0.429054
    22  C    0.000002  -0.000011  -0.002455  -0.000028   0.014414  -0.082605
    23  C   -0.000115   0.000010  -0.000071   0.000011   0.000174  -0.020709
    24  C   -0.006972  -0.000012   0.006253   0.000000  -0.000007   0.000079
    25  C   -0.006854   0.000250  -0.084533   0.000000   0.000010  -0.000233
    26  S   -0.000109  -0.001433   0.014611  -0.000012  -0.000505   0.010186
    27  O    0.000000   0.000000   0.000000  -0.072111   0.708460  -0.142018
    28  H    0.000070  -0.049870   0.002734   0.000000   0.000000   0.000000
    29  H    0.000000   0.000290  -0.000120   0.000000   0.000000   0.000000
    30  H    0.000000   0.000013   0.000001   0.000000   0.000000   0.000000
    31  H    0.000000  -0.000002   0.000002   0.000000   0.000000   0.000000
    32  H    0.000000  -0.000016  -0.000015   0.000000   0.000000   0.000000
    33  H    0.000001   0.000427   0.006142   0.000000   0.000000   0.000000
    34  H    0.000000   0.000000   0.000000   0.313019  -0.031446   0.006489
    35  H    0.000000   0.000000  -0.000018   0.001587  -0.011187  -0.050409
    36  H   -0.000027   0.000000  -0.000003   0.000003   0.000138   0.005684
    37  H    0.017203  -0.000102  -0.000622   0.000000   0.000000  -0.000007
              19         20         21         22         23         24
     1  N    0.000000   0.000000   0.000000   0.000000   0.000000   0.000000
     2  C    0.000000   0.000000   0.000000   0.000000   0.000000   0.000000
     3  C    0.000000   0.000000   0.000000   0.000000   0.000000   0.000000
     4  C    0.000000   0.000000   0.000000   0.000000   0.000000   0.000000
     5  C    0.000000   0.000000   0.000000   0.000000   0.000000   0.000000
     6  C    0.000000   0.000000   0.000000   0.000000   0.000000   0.000000
     7  C    0.000000   0.000000   0.000000   0.000000   0.000000   0.000000
     8  C   -0.000001   0.000000  -0.000641   0.001382   0.013458  -0.042636
     9  C    0.000000   0.000000   0.000002  -0.000247  -0.000063  -0.019958
    10  C    0.000000   0.000000   0.000000   0.000013  -0.000036   0.000348
    11  N    0.000000   0.000000   0.000000   0.000000   0.000000   0.000000
    12  S    0.000000   0.000000   0.000000  -0.000001  -0.000001   0.000176
    13  N    0.000000   0.000000   0.000000   0.000002  -0.000115  -0.006972
    14  C    0.000000   0.000000   0.000000  -0.000011   0.000010  -0.000012
    15  S    0.000000   0.000000   0.000147  -0.002455  -0.000071   0.006253
    16  O   -0.021591  -0.002240   0.009640  -0.000028   0.000011   0.000000
    17  C   -0.066449  -0.002366  -0.010007   0.014414   0.000174  -0.000007
    18  C    0.079456  -0.127716   0.429054  -0.082605  -0.020709   0.000079
    19  C    5.069519   1.051343  -0.081343  -0.030488  -0.005817  -0.000172
    20  N    1.051343   6.318571   0.002101  -0.001793  -0.003298  -0.000001
    21  C   -0.081343   0.002101   4.886018   0.369749  -0.023478   0.009870
    22  C   -0.030488  -0.001793   0.369749   5.562717   0.405105  -0.057513
    23  C   -0.005817  -0.003298  -0.023478   0.405105   4.834241   0.555521
    24  C   -0.000172  -0.000001   0.009870  -0.057513   0.555521   4.864642
    25  C   -0.000066  -0.000006  -0.004433  -0.105550  -0.033184   0.391061
    26  S   -0.000429  -0.000029  -0.042943   0.274334  -0.102313  -0.081420
    27  O    0.003139  -0.000015   0.010169   0.003628   0.000006   0.000000
    28  H    0.000000   0.000000   0.000000   0.000000   0.000000  -0.000001
    29  H    0.000000   0.000000   0.000000   0.000000   0.000000   0.000000
    30  H    0.000000   0.000000   0.000000   0.000000   0.000000   0.000000
    31  H    0.000000   0.000000   0.000000   0.000000   0.000000   0.000000
    32  H    0.000000   0.000000   0.000000   0.000000   0.000000   0.000000
    33  H    0.000000   0.000000   0.000000   0.000000   0.000000   0.000001
    34  H    0.009811   0.003527  -0.000852  -0.000071   0.000001   0.000000
    35  H    0.008525  -0.000014   0.396588  -0.028561   0.007425  -0.000610
    36  H    0.003874   0.006871  -0.010667  -0.048331   0.418554  -0.036116
    37  H   -0.000009  -0.000007   0.000029   0.010990  -0.042566   0.423371
              25         26         27         28         29         30
     1  N   -0.000064  -0.000003   0.000000   0.387114  -0.005437  -0.000182
     2  C   -0.000007   0.000014   0.000000  -0.041111  -0.059109   0.008652
     3  C    0.000000   0.000000   0.000000  -0.003087   0.409381  -0.039755
     4  C    0.000000   0.000000   0.000000   0.000391  -0.020671   0.414762
     5  C    0.000000   0.000000   0.000000   0.000000   0.007410  -0.040727
     6  C    0.000000  -0.000001   0.000000  -0.000217  -0.000492   0.007361
     7  C    0.000007  -0.000069   0.000000   0.004276   0.006429  -0.000511
     8  C    0.335043  -0.077584   0.000000  -0.000205  -0.000002   0.000000
     9  C    0.012919   0.006834   0.000000   0.003125  -0.000006   0.000000
    10  C    0.017798  -0.000217   0.000000  -0.008253  -0.000086   0.000000
    11  N   -0.000455  -0.000007   0.000000   0.016589  -0.000106   0.000000
    12  S   -0.002243   0.000100   0.000000  -0.000838  -0.000001   0.000000
    13  N   -0.006854  -0.000109   0.000000   0.000070   0.000000   0.000000
    14  C    0.000250  -0.001433   0.000000  -0.049870   0.000290   0.000013
    15  S   -0.084533   0.014611   0.000000   0.002734  -0.000120   0.000001
    16  O    0.000000  -0.000012  -0.072111   0.000000   0.000000   0.000000
    17  C    0.000010  -0.000505   0.708460   0.000000   0.000000   0.000000
    18  C   -0.000233   0.010186  -0.142018   0.000000   0.000000   0.000000
    19  C   -0.000066  -0.000429   0.003139   0.000000   0.000000   0.000000
    20  N   -0.000006  -0.000029  -0.000015   0.000000   0.000000   0.000000
    21  C   -0.004433  -0.042943   0.010169   0.000000   0.000000   0.000000
    22  C   -0.105550   0.274334   0.003628   0.000000   0.000000   0.000000
    23  C   -0.033184  -0.102313   0.000006   0.000000   0.000000   0.000000
    24  C    0.391061  -0.081420   0.000000  -0.000001   0.000000   0.000000
    25  C    5.357879   0.335522   0.000000   0.000026   0.000000   0.000000
    26  S    0.335522  15.365363  -0.000775  -0.000007   0.000000   0.000000
    27  O    0.000000  -0.000775   7.778854   0.000000   0.000000   0.000000
    28  H    0.000026  -0.000007   0.000000   0.431735   0.004538  -0.000062
    29  H    0.000000   0.000000   0.000000   0.004538   0.565633  -0.008738
    30  H    0.000000   0.000000   0.000000  -0.000062  -0.008738   0.560835
    31  H    0.000000   0.000000   0.000000  -0.000003  -0.000286  -0.007500
    32  H    0.000000  -0.000001   0.000000   0.000024   0.000062  -0.000355
    33  H   -0.000093   0.000129   0.000000  -0.000499  -0.000238   0.000060
    34  H    0.000000   0.000017   0.003775   0.000000   0.000000   0.000000
    35  H    0.000222  -0.006384   0.034880   0.000000   0.000000   0.000000
    36  H    0.010533   0.006484  -0.000002   0.000000   0.000000   0.000000
    37  H   -0.040866   0.006582   0.000000   0.000000   0.000000   0.000000
              31         32         33         34         35         36
     1  N    0.000011  -0.000183  -0.005470   0.000000   0.000000   0.000000
     2  C   -0.000859   0.008072  -0.055768   0.000000   0.000000   0.000000
     3  C    0.008597  -0.000157   0.004187   0.000000   0.000000   0.000000
     4  C   -0.043036   0.007335  -0.000410   0.000000   0.000000   0.000000
     5  C    0.417022  -0.040280   0.006704   0.000000   0.000000   0.000000
     6  C   -0.041685   0.414180  -0.014909   0.000000   0.000000   0.000000
     7  C    0.009133  -0.037824   0.397074   0.000000   0.000000   0.000000
     8  C    0.000000   0.000000  -0.000746   0.000000   0.000020  -0.000058
     9  C    0.000000   0.000000  -0.000185   0.000000   0.000001  -0.000036
    10  C    0.000000  -0.000001   0.000546   0.000000   0.000000  -0.000001
    11  N    0.000000   0.000000  -0.000005   0.000000   0.000000   0.000000
    12  S    0.000000   0.000000   0.000000   0.000000   0.000000  -0.000002
    13  N    0.000000   0.000000   0.000001   0.000000   0.000000  -0.000027
    14  C   -0.000002  -0.000016   0.000427   0.000000   0.000000   0.000000
    15  S    0.000002  -0.000015   0.006142   0.000000  -0.000018  -0.000003
    16  O    0.000000   0.000000   0.000000   0.313019   0.001587   0.000003
    17  C    0.000000   0.000000   0.000000  -0.031446  -0.011187   0.000138
    18  C    0.000000   0.000000   0.000000   0.006489  -0.050409   0.005684
    19  C    0.000000   0.000000   0.000000   0.009811   0.008525   0.003874
    20  N    0.000000   0.000000   0.000000   0.003527  -0.000014   0.006871
    21  C    0.000000   0.000000   0.000000  -0.000852   0.396588  -0.010667
    22  C    0.000000   0.000000   0.000000  -0.000071  -0.028561  -0.048331
    23  C    0.000000   0.000000   0.000000   0.000001   0.007425   0.418554
    24  C    0.000000   0.000000   0.000001   0.000000  -0.000610  -0.036116
    25  C    0.000000   0.000000  -0.000093   0.000000   0.000222   0.010533
    26  S    0.000000  -0.000001   0.000129   0.000017  -0.006384   0.006484
    27  O    0.000000   0.000000   0.000000   0.003775   0.034880  -0.000002
    28  H   -0.000003   0.000024  -0.000499   0.000000   0.000000   0.000000
    29  H   -0.000286   0.000062  -0.000238   0.000000   0.000000   0.000000
    30  H   -0.007500  -0.000355   0.000060   0.000000   0.000000   0.000000
    31  H    0.561205  -0.007622  -0.000282   0.000000   0.000000   0.000000
    32  H   -0.007622   0.558780  -0.008483   0.000000   0.000000   0.000000
    33  H   -0.000282  -0.008483   0.546416   0.000000   0.000000   0.000000
    34  H    0.000000   0.000000   0.000000   0.443074  -0.000461   0.000013
    35  H    0.000000   0.000000   0.000000  -0.000461   0.520846   0.000048
    36  H    0.000000   0.000000   0.000000   0.000013   0.000048   0.512940
    37  H    0.000000   0.000000   0.000000   0.000000   0.000002  -0.005005
              37
     1  N    0.000000
     2  C    0.000000
     3  C    0.000000
     4  C    0.000000
     5  C    0.000000
     6  C    0.000000
     7  C    0.000000
     8  C   -0.024345
     9  C    0.005959
    10  C    0.001750
    11  N    0.000062
    12  S   -0.000106
    13  N    0.017203
    14  C   -0.000102
    15  S   -0.000622
    16  O    0.000000
    17  C    0.000000
    18  C   -0.000007
    19  C   -0.000009
    20  N   -0.000007
    21  C    0.000029
    22  C    0.010990
    23  C   -0.042566
    24  C    0.423371
    25  C   -0.040866
    26  S    0.006582
    27  O    0.000000
    28  H    0.000000
    29  H    0.000000
    30  H    0.000000
    31  H    0.000000
    32  H    0.000000
    33  H    0.000000
    34  H    0.000000
    35  H    0.000002
    36  H   -0.005005
    37  H    0.524351
 Mulliken charges:
               1
     1  N   -0.461043
     2  C    0.199205
     3  C   -0.106196
     4  C   -0.093105
     5  C   -0.084300
     6  C   -0.100665
     7  C   -0.105077
     8  C   -0.315629
     9  C    0.240109
    10  C    0.121666
    11  N   -0.489887
    12  S    0.573817
    13  N   -0.501749
    14  C    0.038753
    15  S    0.411791
    16  O   -0.306263
    17  C    0.455036
    18  C   -0.200637
    19  C   -0.019302
    20  N   -0.244929
    21  C    0.060995
    22  C   -0.284679
    23  C   -0.002857
    24  C   -0.005905
    25  C   -0.182683
    26  S    0.294064
    27  O   -0.327990
    28  H    0.253531
    29  H    0.101549
    30  H    0.106146
    31  H    0.105306
    32  H    0.106483
    33  H    0.125400
    34  H    0.253105
    35  H    0.127499
    36  H    0.135108
    37  H    0.123335
 Sum of Mulliken charges =   0.00000
 Mulliken charges with hydrogens summed into heavy atoms:
               1
     1  N   -0.207512
     2  C    0.199205
     3  C   -0.004647
     4  C    0.013041
     5  C    0.021005
     6  C    0.005819
     7  C    0.020322
     8  C   -0.315629
     9  C    0.240109
    10  C    0.121666
    11  N   -0.489887
    12  S    0.573817
    13  N   -0.501749
    14  C    0.038753
    15  S    0.411791
    16  O   -0.053158
    17  C    0.455036
    18  C   -0.200637
    19  C   -0.019302
    20  N   -0.244929
    21  C    0.188494
    22  C   -0.284679
    23  C    0.132250
    24  C    0.117430
    25  C   -0.182683
    26  S    0.294064
    27  O   -0.327990
 Electronic spatial extent (au):  <R**2>=          18684.0425
 Charge=              0.0000 electrons
 Dipole moment (field-independent basis, Debye):
    X=            -12.9822    Y=              1.1654    Z=             -0.0215  Tot=             13.0344
 Quadrupole moment (field-independent basis, Debye-Ang):
   XX=           -194.6726   YY=           -177.8200   ZZ=           -179.7219
   XY=             18.2631   XZ=              1.8104   YZ=             -1.0461
 Traceless Quadrupole moment (field-independent basis, Debye-Ang):
   XX=            -10.6010   YY=              6.2515   ZZ=              4.3496
   XY=             18.2631   XZ=              1.8104   YZ=             -1.0461
 Octapole moment (field-independent basis, Debye-Ang**2):
  XXX=           -583.4437  YYY=             22.4032  ZZZ=              0.0095  XYY=           -170.4230
  XXY=             50.4597  XXZ=            -17.0437  XZZ=             27.3672  YZZ=              5.3256
  YYZ=              5.0129  XYZ=              0.9934
 Hexadecapole moment (field-independent basis, Debye-Ang**3):
 XXXX=         -21147.1309 YYYY=          -4611.3978 ZZZZ=           -212.3218 XXXY=           1001.6830
 XXXZ=            158.7284 YYYX=            254.7418 YYYZ=            -19.0809 ZZZX=             -1.2726
 ZZZY=              1.8085 XXYY=          -4777.5981 XXZZ=          -3527.9737 YYZZ=           -873.7453
 XXYZ=             -0.2956 YYXZ=            -10.3950 ZZXY=           -110.4046
 N-N= 2.574724060537D+03 E-N=-1.046154090889D+04  KE= 2.250728924922D+03
 1\1\GINC-N003\FOpt\RB3LYP\6-311G(d,p)\C18H10N4O2S3\R2652\25-Aug-2021\0
 \\#N B3LYP/6-311G(d,p) OPT\\Name\\0,1\N,-4.5182204671,-4.2725362425,0.
 7939521477\C,-3.1258110741,-4.4160352486,0.8518408932\C,-2.6059388914,
 -5.6961154808,0.5949311215\C,-1.2385747036,-5.9188872251,0.6375199213\
 C,-0.3613913781,-4.8746544087,0.9345568273\C,-0.8754668252,-3.60876685
 22,1.1948488904\C,-2.2472286327,-3.3693220699,1.1588796884\C,-6.554803
 4823,-0.9050737535,0.8531598944\C,-7.4218948422,-2.009491323,0.8022028
 791\C,-6.7401086962,-3.2869011134,0.7947703933\N,-7.5393007917,-4.3531
 022425,0.7447294857\S,-9.064412734,-3.7510375412,0.7160983521\N,-8.758
 2813866,-2.1387671654,0.7627396205\C,-5.331254806,-3.1870784438,0.8350
 15357\S,-4.8940532611,-1.5115085284,0.8749600594\O,-7.1687035455,7.937
 6847233,1.1906710234\C,-6.4248313993,6.8074082972,1.1636975285\C,-7.17
 6167671,5.5149411528,1.0941986503\C,-8.5909097719,5.5605204227,1.06247
 91516\N,-9.7463724174,5.6610064768,1.0391365664\C,-6.4459173817,4.3534
 618896,1.0651691106\C,-6.8770858568,3.0087854417,1.0009984722\C,-8.146
 039827,2.4343012268,0.9488032533\C,-8.1462947515,1.0416786502,0.893154
 0911\C,-6.8644855992,0.478648951,0.9010336594\S,-5.6523004361,1.730849
 92,0.978026914\O,-5.2228765278,6.8683487634,1.1950901878\H,-5.03571075
 87,-5.136502199,0.6853422073\H,-3.282401585,-6.5109830005,0.3574552499
 \H,-0.8554211078,-6.9121988323,0.435289379\H,0.7071212629,-5.048741857
 3,0.9640922989\H,-0.2075531026,-2.7898577536,1.4349123197\H,-2.6109381
 687,-2.3794414639,1.3918551205\H,-8.1140434431,7.7349075957,1.15975643
 97\H,-5.3735457961,4.5293252434,1.0976873391\H,-9.0513208486,3.0250701
 608,0.9517173665\H,-9.0366992949,0.4313238304,0.8477681395\\Version=ES
 64L-G09RevD.01\State=1-A\HF=-2256.2250201\RMSD=3.888e-09\RMSF=5.142e-0
 6\Dipole=1.3086174,-4.9557462,-0.1608337\Quadrupole=11.8641399,-15.201
 0287,3.3368888,-6.4773408,0.3052944,0.5844273\PG=C01 [X(C18H10N4O2S3)]
 \\@


 CHARLIE BROWN -- WHICH DO YOU THINK LASTS LONGER IN LIFE, THE GOOD THINGS 
                  OR THE BAD THINGS?
 LINUS --         GOOD THINGS LAST EIGHT SECONDS ..
                  BAD THINGS LAST THREE WEEKS
 CHARLIE BROWN -- WHAT ABOUT IN BETWEEN?
 SNOOPY --        IN BETWEEN YOU SHOULD TAKE A NAP ...
 Job cpu time:       0 days  7 hours 38 minutes 35.0 seconds.
 File lengths (MBytes):  RWF=    200 Int=      0 D2E=      0 Chk=     22 Scr=      1
 Normal termination of Gaussian 09 at Wed Aug 25 17:57:46 2021.
