 Entering Gaussian System, Link 0=g16
 Input=mex.com
 Output=mex.out
 Initial command:
 /usr/local/apps/gaussian/g16-b01-avx2//g16/l1.exe "/tmp/r2532.891078.maple/Gau-34064.inp" -scrdir="/tmp/r2532.891078.maple/"
 Entering Link 1 = /usr/local/apps/gaussian/g16-b01-avx2//g16/l1.exe PID=     34066.
  
 Copyright (c) 1988-2017, Gaussian, Inc.  All Rights Reserved.
  
 This is part of the Gaussian(R) 16 program.  It is based on
 the Gaussian(R) 09 system (copyright 2009, Gaussian, Inc.),
 the Gaussian(R) 03 system (copyright 2003, Gaussian, Inc.),
 the Gaussian(R) 98 system (copyright 1998, Gaussian, Inc.),
 the Gaussian(R) 94 system (copyright 1995, Gaussian, Inc.),
 the Gaussian 92(TM) system (copyright 1992, Gaussian, Inc.),
 the Gaussian 90(TM) system (copyright 1990, Gaussian, Inc.),
 the Gaussian 88(TM) system (copyright 1988, Gaussian, Inc.),
 the Gaussian 86(TM) system (copyright 1986, Carnegie Mellon
 University), and the Gaussian 82(TM) system (copyright 1983,
 Carnegie Mellon University). Gaussian is a federally registered
 trademark of Gaussian, Inc.
  
 This software contains proprietary and confidential information,
 including trade secrets, belonging to Gaussian, Inc.
  
 This software is provided under written license and may be
 used, copied, transmitted, or stored only in accord with that
 written license.
  
 The following legend is applicable only to US Government
 contracts under FAR:
  
                    RESTRICTED RIGHTS LEGEND
  
 Use, reproduction and disclosure by the US Government is
 subject to restrictions as set forth in subparagraphs (a)
 and (c) of the Commercial Computer Software - Restricted
 Rights clause in FAR 52.227-19.
  
 Gaussian, Inc.
 340 Quinnipiac St., Bldg. 40, Wallingford CT 06492
  
  
 ---------------------------------------------------------------
 Warning -- This program may not be used in any manner that
 competes with the business of Gaussian, Inc. or will provide
 assistance to any competitor of Gaussian, Inc.  The licensee
 of this program is prohibited from giving any competitor of
 Gaussian, Inc. access to this program.  By using this program,
 the user acknowledges that Gaussian, Inc. is engaged in the
 business of creating and licensing software in the field of
 computational chemistry and represents and warrants to the
 licensee that it is not a competitor of Gaussian, Inc. and that
 it will not use this program in any manner prohibited above.
 ---------------------------------------------------------------
  

 Cite this work as:
 Gaussian 16, Revision B.01,
 M. J. Frisch, G. W. Trucks, H. B. Schlegel, G. E. Scuseria, 
 M. A. Robb, J. R. Cheeseman, G. Scalmani, V. Barone, 
 G. A. Petersson, H. Nakatsuji, X. Li, M. Caricato, A. V. Marenich, 
 J. Bloino, B. G. Janesko, R. Gomperts, B. Mennucci, H. P. Hratchian, 
 J. V. Ortiz, A. F. Izmaylov, J. L. Sonnenberg, D. Williams-Young, 
 F. Ding, F. Lipparini, F. Egidi, J. Goings, B. Peng, A. Petrone, 
 T. Henderson, D. Ranasinghe, V. G. Zakrzewski, J. Gao, N. Rega, 
 G. Zheng, W. Liang, M. Hada, M. Ehara, K. Toyota, R. Fukuda, 
 J. Hasegawa, M. Ishida, T. Nakajima, Y. Honda, O. Kitao, H. Nakai, 
 T. Vreven, K. Throssell, J. A. Montgomery, Jr., J. E. Peralta, 
 F. Ogliaro, M. J. Bearpark, J. J. Heyd, E. N. Brothers, K. N. Kudin, 
 V. N. Staroverov, T. A. Keith, R. Kobayashi, J. Normand, 
 K. Raghavachari, A. P. Rendell, J. C. Burant, S. S. Iyengar, 
 J. Tomasi, M. Cossi, J. M. Millam, M. Klene, C. Adamo, R. Cammi, 
 J. W. Ochterski, R. L. Martin, K. Morokuma, O. Farkas, 
 J. B. Foresman, and D. J. Fox, Gaussian, Inc., Wallingford CT, 2016.
 
 ******************************************
 Gaussian 16:  ES64L-G16RevB.01 20-Dec-2017
                13-Jul-2021 
 ******************************************
 %mem=8gb
 ---------------------------------------
 #N TD(NStates=10) BHandHLYP/6-311G(d,p)
 ---------------------------------------
 1/38=1,172=1/1;
 2/12=2,17=6,18=5,40=1/2;
 3/5=4,6=6,7=101,11=9,25=1,30=1,74=-3/1,2,3,8;
 4//1;
 5/5=2,38=5/2;
 8/6=1,10=2,108=10/1;
 9/41=10,42=1,70=2/14;
 6/7=2,8=2,9=2,10=2/1;
 99/5=1,9=1/99;
 ----
 Name
 ----
 Symbolic Z-matrix:
 Charge =  0 Multiplicity = 1
 6                    -7.54656   1.28031   2.6831 
 6                    -8.59284   0.80025   1.67846 
 6                    -7.98235   0.25077   0.55953 
 6                    -6.56003   0.31217   0.72128 
 16                   -5.13957  -0.12657  -0.15444 
 6                    -4.11068   0.4976    1.15417 
 6                    -4.88606   1.00911   2.18405 
 6                    -6.26721   0.90307   1.93847 
 1                    -4.43472   1.43657   3.06607 
 6                    -2.66474   0.42197   1.03683 
 6                    -2.033    -0.18067  -0.03872 
 6                    -0.63086  -0.25993  -0.18826 
 6                     0.27148   0.24855   0.72708 
 6                    -0.32531   0.88604   1.87025 
 7                     0.34172   1.43228   2.88941 
 16                   -0.76461   2.00935   3.9457 
 7                    -2.13753   1.5848    3.1562 
 6                    -1.7736    0.97165   2.02909 
 6                     1.72791   0.12979   0.53474 
 6                     2.6277    1.12709   0.94941 
 6                     3.98947   1.01524   0.71634 
 6                     4.52046  -0.10516   0.05667 
 6                     3.63088  -1.11158  -0.35387 
 6                     2.27135  -0.99257  -0.11446 
 1                     1.61859  -1.79985  -0.426 
 1                     4.01251  -1.99078  -0.85704 
 7                     5.90597  -0.21808  -0.18318 
 6                     6.54171  -1.49099  -0.1626 
 6                     7.45228  -1.84959  -1.16461 
 6                     8.08     -3.08788  -1.14278 
 6                     7.81446  -4.02236  -0.12908 
 6                     6.90281  -3.64961   0.87124 
 6                     6.28186  -2.40695   0.86377 
 1                     5.59547  -2.13832   1.65775 
 1                     6.69846  -4.33368   1.68738 
 6                     8.43148  -5.37235  -0.12359 
 6                     7.65544  -6.505     0.18419 
 6                     8.17534  -7.78766   0.17935 
 6                     9.52092  -7.9917   -0.14652 
 6                     10.32216  -6.89079  -0.44919 
 6                     9.78101  -5.60366  -0.43655 
 8                     10.63086  -4.56749  -0.77251 
 6                     11.17461  -3.85486   0.34196 
 1                     11.76885  -4.52187   0.97704 
 1                     11.81864  -3.07957  -0.07252 
 1                     10.38578  -3.39024   0.94155 
 1                     11.36699  -6.98996  -0.7089 
 8                     9.95073  -9.28402  -0.14462 
 6                     11.3039  -9.54734  -0.48928 
 1                     11.41934  -10.62851  -0.43474 
 1                     11.53197  -9.20921  -1.50608 
 1                     11.99721  -9.07373   0.21479 
 1                     7.55721  -8.6482    0.40295 
 1                     6.603    -6.36838   0.40502 
 1                     8.7765   -3.34401  -1.92978 
 1                     7.6608   -1.15274  -1.96744 
 6                     6.68419   0.93876  -0.47747 
 6                     7.92403   1.13789   0.14191 
 6                     8.69214   2.25591  -0.15308 
 6                     8.25176   3.22435  -1.06829 
 6                     7.00285   3.01772  -1.67325 
 6                     6.23404   1.8943   -1.39461 
 1                     5.27614   1.75911  -1.88237 
 1                     6.62294   3.75359  -2.37299 
 6                     9.07436   4.40407  -1.43832 
 6                     9.74153   5.20481  -0.48801 
 6                     10.49042   6.32069  -0.87975 
 6                     10.58911   6.65654  -2.23319 
 6                     9.93879   5.87832  -3.19152 
 6                     9.20075   4.77855  -2.78304 
 1                     8.71441   4.16688  -3.53423 
 1                     10.03233   6.14434  -4.2365 
 8                     11.29944   7.72032  -2.7049 
 6                     11.98548   8.55072  -1.78071 
 1                     12.74533   7.9914   -1.22289 
 1                     12.4738   9.31926  -2.37762 
 1                     11.29419   9.02763  -1.07644 
 1                     10.98609   6.92239  -0.13449 
 8                     9.60272   4.84075   0.8206 
 6                     10.18347   5.64735   1.83329 
 1                     11.27563   5.6807    1.74829 
 1                     9.78476   6.66773   1.81342 
 1                     9.91281   5.17601   2.77681 
 1                     9.6461    2.38607   0.33983 
 1                     8.28588   0.40521   0.8534 
 1                     4.65463   1.80255   1.04771 
 1                     2.25591   1.99886   1.46887 
 1                    -0.2525   -0.72702  -1.0894 
 1                    -2.636    -0.61438  -0.82843 
 16                   -9.12379  -0.30554  -0.60542 
 6                    -10.46958   0.21283   0.42408 
 6                    -9.994     0.77727   1.5999 
 1                    -10.6534   1.17449   2.35995 
 6                    -11.84609   0.0265    0.00297 
 6                    -12.91105   0.18829   0.91453 
 6                    -14.2207   0.01977   0.51357 
 6                    -14.55361  -0.32748  -0.81418 
 6                    -13.48823  -0.49537  -1.72485 
 6                    -12.17879  -0.32003  -1.32517 
 1                    -11.39185  -0.44104  -2.06047 
 1                    -13.68379  -0.75868  -2.7551 
 6                    -15.95197  -0.48436  -1.12877 
 6                    -16.59811  -0.8011   -2.28498 
 6                    -15.96947  -1.06519  -3.53045 
 7                    -15.5442  -1.29491  -4.58391 
 6                    -18.10357  -0.87839  -2.24275 
 8                    -18.73802  -0.67251  -1.24304 
 8                    -18.72331  -1.19529  -3.39914 
 1                    -18.08775  -1.33222  -4.11588 
 1                    -16.63723  -0.32316  -0.30036 
 1                    -15.01849   0.14807   1.23717 
 1                    -12.7047   0.43079   1.94917 
 6                    -7.63727   2.80425   2.9116 
 1                    -7.55861   3.34721   1.96768 
 1                    -8.58932   3.06642   3.38145 
 1                    -6.83151   3.14023   3.56951 
 6                    -7.66091   0.52423   4.0242 
 1                    -7.60261  -0.55531   3.87171 
 1                    -6.85302   0.81979   4.69878 
 1                    -8.61149   0.75222   4.51444 
 
 Stoichiometry    C61H46N4O6S3
 Framework group  C1[X(C61H46N4O6S3)]
 Deg. of freedom   354
 Full point group                 C1      NOp   1
 Largest Abelian subgroup         C1      NOp   1
 Largest concise Abelian subgroup C1      NOp   1
                         Standard orientation:                         
 ---------------------------------------------------------------------
 Center     Atomic      Atomic             Coordinates (Angstroms)
 Number     Number       Type             X           Y           Z
 ---------------------------------------------------------------------
      1          6           0        7.546561   -1.280310    2.683097
      2          6           0        8.592842   -0.800254    1.678459
      3          6           0        7.982348   -0.250768    0.559527
      4          6           0        6.560027   -0.312166    0.721275
      5         16           0        5.139569    0.126570   -0.154442
      6          6           0        4.110677   -0.497597    1.154165
      7          6           0        4.886064   -1.009111    2.184047
      8          6           0        6.267212   -0.903068    1.938473
      9          1           0        4.434723   -1.436566    3.066072
     10          6           0        2.664740   -0.421969    1.036834
     11          6           0        2.033004    0.180668   -0.038723
     12          6           0        0.630861    0.259925   -0.188264
     13          6           0       -0.271476   -0.248550    0.727084
     14          6           0        0.325305   -0.886039    1.870252
     15          7           0       -0.341718   -1.432283    2.889414
     16         16           0        0.764611   -2.009353    3.945696
     17          7           0        2.137532   -1.584801    3.156203
     18          6           0        1.773595   -0.971653    2.029089
     19          6           0       -1.727905   -0.129793    0.534743
     20          6           0       -2.627700   -1.127090    0.949407
     21          6           0       -3.989468   -1.015240    0.716343
     22          6           0       -4.520458    0.105162    0.056672
     23          6           0       -3.630876    1.111584   -0.353867
     24          6           0       -2.271351    0.992571   -0.114460
     25          1           0       -1.618590    1.799849   -0.426000
     26          1           0       -4.012512    1.990779   -0.857038
     27          7           0       -5.905965    0.218076   -0.183178
     28          6           0       -6.541714    1.490986   -0.162595
     29          6           0       -7.452277    1.849593   -1.164607
     30          6           0       -8.080003    3.087880   -1.142777
     31          6           0       -7.814461    4.022365   -0.129081
     32          6           0       -6.902809    3.649608    0.871239
     33          6           0       -6.281857    2.406948    0.863770
     34          1           0       -5.595470    2.138317    1.657746
     35          1           0       -6.698462    4.333679    1.687379
     36          6           0       -8.431479    5.372355   -0.123591
     37          6           0       -7.655440    6.504999    0.184186
     38          6           0       -8.175336    7.787662    0.179345
     39          6           0       -9.520917    7.991698   -0.146516
     40          6           0      -10.322163    6.890794   -0.449187
     41          6           0       -9.781010    5.603663   -0.436548
     42          8           0      -10.630860    4.567494   -0.772508
     43          6           0      -11.174607    3.854858    0.341958
     44          1           0      -11.768846    4.521873    0.977035
     45          1           0      -11.818644    3.079567   -0.072520
     46          1           0      -10.385781    3.390238    0.941552
     47          1           0      -11.366991    6.989955   -0.708897
     48          8           0       -9.950727    9.284025   -0.144623
     49          6           0      -11.303899    9.547345   -0.489284
     50          1           0      -11.419341   10.628514   -0.434744
     51          1           0      -11.531966    9.209206   -1.506079
     52          1           0      -11.997205    9.073730    0.214791
     53          1           0       -7.557214    8.648199    0.402949
     54          1           0       -6.602998    6.368378    0.405019
     55          1           0       -8.776499    3.344012   -1.929784
     56          1           0       -7.660802    1.152742   -1.967442
     57          6           0       -6.684190   -0.938764   -0.477466
     58          6           0       -7.924033   -1.137885    0.141914
     59          6           0       -8.692136   -2.255911   -0.153082
     60          6           0       -8.251760   -3.224345   -1.068286
     61          6           0       -7.002848   -3.017724   -1.673254
     62          6           0       -6.234035   -1.894297   -1.394612
     63          1           0       -5.276141   -1.759105   -1.882366
     64          1           0       -6.622935   -3.753594   -2.372990
     65          6           0       -9.074355   -4.404066   -1.438322
     66          6           0       -9.741533   -5.204812   -0.488005
     67          6           0      -10.490422   -6.320690   -0.879745
     68          6           0      -10.589114   -6.656541   -2.233187
     69          6           0       -9.938791   -5.878317   -3.191525
     70          6           0       -9.200749   -4.778553   -2.783035
     71          1           0       -8.714408   -4.166883   -3.534234
     72          1           0      -10.032331   -6.144342   -4.236502
     73          8           0      -11.299441   -7.720324   -2.704903
     74          6           0      -11.985477   -8.550716   -1.780708
     75          1           0      -12.745332   -7.991399   -1.222891
     76          1           0      -12.473802   -9.319260   -2.377619
     77          1           0      -11.294191   -9.027627   -1.076442
     78          1           0      -10.986088   -6.922385   -0.134488
     79          8           0       -9.602716   -4.840751    0.820595
     80          6           0      -10.183472   -5.647349    1.833286
     81          1           0      -11.275635   -5.680701    1.748293
     82          1           0       -9.784755   -6.667732    1.813423
     83          1           0       -9.912805   -5.176009    2.776807
     84          1           0       -9.646101   -2.386068    0.339831
     85          1           0       -8.285881   -0.405206    0.853395
     86          1           0       -4.654626   -1.802552    1.047713
     87          1           0       -2.255914   -1.998856    1.468874
     88          1           0        0.252500    0.727024   -1.089395
     89          1           0        2.635999    0.614377   -0.828430
     90         16           0        9.123789    0.305543   -0.605419
     91          6           0       10.469575   -0.212829    0.424075
     92          6           0        9.994005   -0.777274    1.599899
     93          1           0       10.653402   -1.174492    2.359953
     94          6           0       11.846087   -0.026495    0.002967
     95          6           0       12.911052   -0.188287    0.914530
     96          6           0       14.220700   -0.019765    0.513571
     97          6           0       14.553611    0.327482   -0.814183
     98          6           0       13.488229    0.495374   -1.724850
     99          6           0       12.178791    0.320031   -1.325168
    100          1           0       11.391855    0.441040   -2.060468
    101          1           0       13.683793    0.758683   -2.755101
    102          6           0       15.951965    0.484358   -1.128773
    103          6           0       16.598111    0.801101   -2.284978
    104          6           0       15.969472    1.065192   -3.530449
    105          7           0       15.544201    1.294906   -4.583914
    106          6           0       18.103574    0.878389   -2.242749
    107          8           0       18.738018    0.672509   -1.243038
    108          8           0       18.723307    1.195286   -3.399137
    109          1           0       18.087752    1.332222   -4.115879
    110          1           0       16.637229    0.323158   -0.300363
    111          1           0       15.018492   -0.148074    1.237166
    112          1           0       12.704703   -0.430789    1.949174
    113          6           0        7.637268   -2.804247    2.911604
    114          1           0        7.558605   -3.347206    1.967676
    115          1           0        8.589316   -3.066421    3.381452
    116          1           0        6.831512   -3.140233    3.569513
    117          6           0        7.660911   -0.524229    4.024198
    118          1           0        7.602613    0.555306    3.871714
    119          1           0        6.853024   -0.819794    4.698782
    120          1           0        8.611489   -0.752222    4.514437
 ---------------------------------------------------------------------
 Rotational constants (GHZ):           0.0298996           0.0053444           0.0048132
 Standard basis: 6-311G(d,p) (5D, 7F)
 There are  1706 symmetry adapted cartesian basis functions of A   symmetry.
 There are  1632 symmetry adapted basis functions of A   symmetry.
  1632 basis functions,  2778 primitive gaussians,  1706 cartesian basis functions
   268 alpha electrons      268 beta electrons
       nuclear repulsion energy     10029.7007763290 Hartrees.
 NAtoms=  120 NActive=  120 NUniq=  120 SFac= 1.00D+00 NAtFMM=   60 NAOKFM=T Big=T
 Integral buffers will be    131072 words long.
 Regular integral format.
 Two-electron integral symmetry is turned on.
 One-electron integrals computed using PRISM.
 NBasis=  1632 RedAO= T EigKep=  1.15D-04  NBF=  1632
 NBsUse=  1632 1.00D-06 EigRej= -1.00D+00 NBFU=  1632
 ExpMin= 7.71D-02 ExpMax= 9.34D+04 ExpMxC= 3.17D+03 IAcc=3 IRadAn=         5 AccDes= 0.00D+00
 Harris functional with IExCor=  402 and IRadAn=       5 diagonalized for initial guess.
 HarFok:  IExCor=  402 AccDes= 0.00D+00 IRadAn=         5 IDoV= 1 UseB2=F ITyADJ=14
 ICtDFT=  3500011 ScaDFX=  1.000000  1.000000  1.000000  1.000000
 FoFCou: FMM=F IPFlag=           0 FMFlag=      100000 FMFlg1=        2001
         NFxFlg=           0 DoJE=T BraDBF=F KetDBF=T FulRan=T
         wScrn=  0.000000 ICntrl=       500 IOpCl=  0 I1Cent=   200000004 NGrid=           0
         NMat0=    1 NMatS0=      1 NMatT0=    0 NMatD0=    1 NMtDS0=    0 NMtDT0=    0
 Petite list used in FoFCou.
 Requested convergence on RMS density matrix=1.00D-08 within 128 cycles.
 Requested convergence on MAX density matrix=1.00D-06.
 Requested convergence on             energy=1.00D-06.
 No special actions if energy rises.
 Integral accuracy reduced to 1.0D-05 until final iterations.
 Initial convergence to 1.0D-05 achieved.  Increase integral accuracy.
 SCF Done:  E(RBHandHLYP) =  -4215.94141812     A.U. after   16 cycles
            NFock= 16  Conv=0.72D-08     -V/T= 2.0032
 DoSCS=F DFT=T ScalE2(SS,OS)=  1.000000  1.000000
 ExpMin= 7.71D-02 ExpMax= 9.34D+04 ExpMxC= 3.17D+03 IAcc=3 IRadAn=         5 AccDes= 0.00D+00
 HarFok:  IExCor=  205 AccDes= 0.00D+00 IRadAn=         5 IDoV=-2 UseB2=F ITyADJ=14
 ICtDFT= 12500011 ScaDFX=  1.000000  1.000000  1.000000  1.000000
 GSVD:  LWork=       -8084 too small for GESVD, short by       38270 words or       38270 for optimal perf.
 Range of M.O.s used for correlation:    87  1632
 NBasis=  1632 NAE=   268 NBE=   268 NFC=    86 NFV=     0
 NROrb=   1546 NOA=   182 NOB=   182 NVA=  1364 NVB=  1364

 **** Warning!!: The largest alpha MO coefficient is  0.18157216D+02

 Orbital symmetries:
       Occupied  (A) (A) (A) (A) (A) (A) (A) (A) (A) (A) (A) (A)
                 (A) (A) (A) (A) (A) (A) (A) (A) (A) (A) (A) (A)
                 (A) (A) (A) (A) (A) (A) (A) (A) (A) (A) (A) (A)
                 (A) (A) (A) (A) (A) (A) (A) (A) (A) (A) (A) (A)
                 (A) (A) (A) (A) (A) (A) (A) (A) (A) (A) (A) (A)
                 (A) (A) (A) (A) (A) (A) (A) (A) (A) (A) (A) (A)
                 (A) (A) (A) (A) (A) (A) (A) (A) (A) (A) (A) (A)
                 (A) (A) (A) (A) (A) (A) (A) (A) (A) (A) (A) (A)
                 (A) (A) (A) (A) (A) (A) (A) (A) (A) (A) (A) (A)
                 (A) (A) (A) (A) (A) (A) (A) (A) (A) (A) (A) (A)
                 (A) (A) (A) (A) (A) (A) (A) (A) (A) (A) (A) (A)
                 (A) (A) (A) (A) (A) (A) (A) (A) (A) (A) (A) (A)
                 (A) (A) (A) (A) (A) (A) (A) (A) (A) (A) (A) (A)
                 (A) (A) (A) (A) (A) (A) (A) (A) (A) (A) (A) (A)
                 (A) (A) (A) (A) (A) (A) (A) (A) (A) (A) (A) (A)
                 (A) (A) (A) (A) (A) (A) (A) (A) (A) (A) (A) (A)
                 (A) (A) (A) (A) (A) (A) (A) (A) (A) (A) (A) (A)
                 (A) (A) (A) (A) (A) (A) (A) (A) (A) (A) (A) (A)
                 (A) (A) (A) (A) (A) (A) (A) (A) (A) (A) (A) (A)
                 (A) (A) (A) (A) (A) (A) (A) (A) (A) (A) (A) (A)
                 (A) (A) (A) (A) (A) (A) (A) (A) (A) (A) (A) (A)
                 (A) (A) (A) (A) (A) (A) (A) (A) (A) (A) (A) (A)
                 (A) (A) (A) (A)
       Virtual   (A) (A) (A) (A) (A) (A) (A) (A) (A) (A) (A) (A)
                 (A) (A) (A) (A) (A) (A) (A) (A) (A) (A) (A) (A)
                 (A) (A) (A) (A) (A) (A) (A) (A) (A) (A) (A) (A)
                 (A) (A) (A) (A) (A) (A) (A) (A) (A) (A) (A) (A)
                 (A) (A) (A) (A) (A) (A) (A) (A) (A) (A) (A) (A)
                 (A) (A) (A) (A) (A) (A) (A) (A) (A) (A) (A) (A)
                 (A) (A) (A) (A) (A) (A) (A) (A) (A) (A) (A) (A)
                 (A) (A) (A) (A) (A) (A) (A) (A) (A) (A) (A) (A)
                 (A) (A) (A) (A) (A) (A) (A) (A) (A) (A) (A) (A)
                 (A) (A) (A) (A) (A) (A) (A) (A) (A) (A) (A) (A)
                 (A) (A) (A) (A) (A) (A) (A) (A) (A) (A) (A) (A)
                 (A) (A) (A) (A) (A) (A) (A) (A) (A) (A) (A) (A)
                 (A) (A) (A) (A) (A) (A) (A) (A) (A) (A) (A) (A)
                 (A) (A) (A) (A) (A) (A) (A) (A) (A) (A) (A) (A)
                 (A) (A) (A) (A) (A) (A) (A) (A) (A) (A) (A) (A)
                 (A) (A) (A) (A) (A) (A) (A) (A) (A) (A) (A) (A)
                 (A) (A) (A) (A) (A) (A) (A) (A) (A) (A) (A) (A)
                 (A) (A) (A) (A) (A) (A) (A) (A) (A) (A) (A) (A)
                 (A) (A) (A) (A) (A) (A) (A) (A) (A) (A) (A) (A)
                 (A) (A) (A) (A) (A) (A) (A) (A) (A) (A) (A) (A)
                 (A) (A) (A) (A) (A) (A) (A) (A) (A) (A) (A) (A)
                 (A) (A) (A) (A) (A) (A) (A) (A) (A) (A) (A) (A)
                 (A) (A) (A) (A) (A) (A) (A) (A) (A) (A) (A) (A)
                 (A) (A) (A) (A) (A) (A) (A) (A) (A) (A) (A) (A)
                 (A) (A) (A) (A) (A) (A) (A) (A) (A) (A) (A) (A)
                 (A) (A) (A) (A) (A) (A) (A) (A) (A) (A) (A) (A)
                 (A) (A) (A) (A) (A) (A) (A) (A) (A) (A) (A) (A)
                 (A) (A) (A) (A) (A) (A) (A) (A) (A) (A) (A) (A)
                 (A) (A) (A) (A) (A) (A) (A) (A) (A) (A) (A) (A)
                 (A) (A) (A) (A) (A) (A) (A) (A) (A) (A) (A) (A)
                 (A) (A) (A) (A) (A) (A) (A) (A) (A) (A) (A) (A)
                 (A) (A) (A) (A) (A) (A) (A) (A) (A) (A) (A) (A)
                 (A) (A) (A) (A) (A) (A) (A) (A) (A) (A) (A) (A)
                 (A) (A) (A) (A) (A) (A) (A) (A) (A) (A) (A) (A)
                 (A) (A) (A) (A) (A) (A) (A) (A) (A) (A) (A) (A)
                 (A) (A) (A) (A) (A) (A) (A) (A) (A) (A) (A) (A)
                 (A) (A) (A) (A) (A) (A) (A) (A) (A) (A) (A) (A)
                 (A) (A) (A) (A) (A) (A) (A) (A) (A) (A) (A) (A)
                 (A) (A) (A) (A) (A) (A) (A) (A) (A) (A) (A) (A)
                 (A) (A) (A) (A) (A) (A) (A) (A) (A) (A) (A) (A)
                 (A) (A) (A) (A) (A) (A) (A) (A) (A) (A) (A) (A)
                 (A) (A) (A) (A) (A) (A) (A) (A) (A) (A) (A) (A)
                 (A) (A) (A) (A) (A) (A) (A) (A) (A) (A) (A) (A)
                 (A) (A) (A) (A) (A) (A) (A) (A) (A) (A) (A) (A)
                 (A) (A) (A) (A) (A) (A) (A) (A) (A) (A) (A) (A)
                 (A) (A) (A) (A) (A) (A) (A) (A) (A) (A) (A) (A)
                 (A) (A) (A) (A) (A) (A) (A) (A) (A) (A) (A) (A)
                 (A) (A) (A) (A) (A) (A) (A) (A) (A) (A) (A) (A)
                 (A) (A) (A) (A) (A) (A) (A) (A) (A) (A) (A) (A)
                 (A) (A) (A) (A) (A) (A) (A) (A) (A) (A) (A) (A)
                 (A) (A) (A) (A) (A) (A) (A) (A) (A) (A) (A) (A)
                 (A) (A) (A) (A) (A) (A) (A) (A) (A) (A) (A) (A)
                 (A) (A) (A) (A) (A) (A) (A) (A) (A) (A) (A) (A)
                 (A) (A) (A) (A) (A) (A) (A) (A) (A) (A) (A) (A)
                 (A) (A) (A) (A) (A) (A) (A) (A) (A) (A) (A) (A)
                 (A) (A) (A) (A) (A) (A) (A) (A) (A) (A) (A) (A)
                 (A) (A) (A) (A) (A) (A) (A) (A) (A) (A) (A) (A)
                 (A) (A) (A) (A) (A) (A) (A) (A) (A) (A) (A) (A)
                 (A) (A) (A) (A) (A) (A) (A) (A) (A) (A) (A) (A)
                 (A) (A) (A) (A) (A) (A) (A) (A) (A) (A) (A) (A)
                 (A) (A) (A) (A) (A) (A) (A) (A) (A) (A) (A) (A)
                 (A) (A) (A) (A) (A) (A) (A) (A) (A) (A) (A) (A)
                 (A) (A) (A) (A) (A) (A) (A) (A) (A) (A) (A) (A)
                 (A) (A) (A) (A) (A) (A) (A) (A) (A) (A) (A) (A)
                 (A) (A) (A) (A) (A) (A) (A) (A) (A) (A) (A) (A)
                 (A) (A) (A) (A) (A) (A) (A) (A) (A) (A) (A) (A)
                 (A) (A) (A) (A) (A) (A) (A) (A) (A) (A) (A) (A)
                 (A) (A) (A) (A) (A) (A) (A) (A) (A) (A) (A) (A)
                 (A) (A) (A) (A) (A) (A) (A) (A) (A) (A) (A) (A)
                 (A) (A) (A) (A) (A) (A) (A) (A) (A) (A) (A) (A)
                 (A) (A) (A) (A) (A) (A) (A) (A) (A) (A) (A) (A)
                 (A) (A) (A) (A) (A) (A) (A) (A) (A) (A) (A) (A)
                 (A) (A) (A) (A) (A) (A) (A) (A) (A) (A) (A) (A)
                 (A) (A) (A) (A) (A) (A) (A) (A) (A) (A) (A) (A)
                 (A) (A) (A) (A) (A) (A) (A) (A) (A) (A) (A) (A)
                 (A) (A) (A) (A) (A) (A) (A) (A) (A) (A) (A) (A)
                 (A) (A) (A) (A) (A) (A) (A) (A) (A) (A) (A) (A)
                 (A) (A) (A) (A) (A) (A) (A) (A) (A) (A) (A) (A)
                 (A) (A) (A) (A) (A) (A) (A) (A) (A) (A) (A) (A)
                 (A) (A) (A) (A) (A) (A) (A) (A) (A) (A) (A) (A)
                 (A) (A) (A) (A) (A) (A) (A) (A) (A) (A) (A) (A)
                 (A) (A) (A) (A) (A) (A) (A) (A) (A) (A) (A) (A)
                 (A) (A) (A) (A) (A) (A) (A) (A) (A) (A) (A) (A)
                 (A) (A) (A) (A) (A) (A) (A) (A) (A) (A) (A) (A)
                 (A) (A) (A) (A) (A) (A) (A) (A) (A) (A) (A) (A)
                 (A) (A) (A) (A) (A) (A) (A) (A) (A) (A) (A) (A)
                 (A) (A) (A) (A) (A) (A) (A) (A) (A) (A) (A) (A)
                 (A) (A) (A) (A) (A) (A) (A) (A) (A) (A) (A) (A)
                 (A) (A) (A) (A) (A) (A) (A) (A) (A) (A) (A) (A)
                 (A) (A) (A) (A) (A) (A) (A) (A) (A) (A) (A) (A)
                 (A) (A) (A) (A) (A) (A) (A) (A) (A) (A) (A) (A)
                 (A) (A) (A) (A) (A) (A) (A) (A) (A) (A) (A) (A)
                 (A) (A) (A) (A) (A) (A) (A) (A) (A) (A) (A) (A)
                 (A) (A) (A) (A) (A) (A) (A) (A) (A) (A) (A) (A)
                 (A) (A) (A) (A) (A) (A) (A) (A) (A) (A) (A) (A)
                 (A) (A) (A) (A) (A) (A) (A) (A) (A) (A) (A) (A)
                 (A) (A) (A) (A) (A) (A) (A) (A) (A) (A) (A) (A)
                 (A) (A) (A) (A) (A) (A) (A) (A) (A) (A) (A) (A)
                 (A) (A) (A) (A) (A) (A) (A) (A) (A) (A) (A) (A)
                 (A) (A) (A) (A) (A) (A) (A) (A) (A) (A) (A) (A)
                 (A) (A) (A) (A) (A) (A) (A) (A) (A) (A) (A) (A)
                 (A) (A) (A) (A) (A) (A) (A) (A) (A) (A) (A) (A)
                 (A) (A) (A) (A) (A) (A) (A) (A) (A) (A) (A) (A)
                 (A) (A) (A) (A) (A) (A) (A) (A) (A) (A) (A) (A)
                 (A) (A) (A) (A) (A) (A) (A) (A) (A) (A) (A) (A)
                 (A) (A) (A) (A) (A) (A) (A) (A) (A) (A) (A) (A)
                 (A) (A) (A) (A) (A) (A) (A) (A) (A) (A) (A) (A)
                 (A) (A) (A) (A) (A) (A) (A) (A) (A) (A) (A) (A)
                 (A) (A) (A) (A) (A) (A) (A) (A) (A) (A) (A) (A)
                 (A) (A) (A) (A) (A) (A) (A) (A) (A) (A) (A) (A)
                 (A) (A) (A) (A) (A) (A) (A) (A) (A) (A) (A) (A)
                 (A) (A) (A) (A) (A) (A) (A) (A) (A) (A) (A) (A)
                 (A) (A) (A) (A) (A) (A) (A) (A) (A) (A) (A) (A)
                 (A) (A) (A) (A) (A) (A) (A) (A)
    40 initial guesses have been made.
 Convergence on wavefunction:    0.001000000000000
 Iteration     1 Dimension    40 NMult     0 NNew     40
 CISAX will form    40 AO SS matrices at one time.
 New state      7 was old state      8
 New state      8 was old state      7
 New state      9 was old state     10
 New state     10 was old state     18
 Iteration     2 Dimension    60 NMult    40 NNew     20
 New state      5 was old state      6
 New state      6 was old state      7
 New state      7 was old state      5
 New state      8 was old state     10
 New state      9 was old state      8
 New state     10 was old state     12
 Iteration     3 Dimension    80 NMult    60 NNew     20
 New state      9 was old state     10
 New state     10 was old state      9
 Iteration     4 Dimension   100 NMult    80 NNew     20
 Iteration     5 Dimension   120 NMult   100 NNew     20
 Iteration     6 Dimension   134 NMult   120 NNew     14
 Iteration     7 Dimension   140 NMult   134 NNew      6
 Iteration     8 Dimension   146 NMult   140 NNew      6
 Iteration     9 Dimension   150 NMult   146 NNew      4
 Iteration    10 Dimension   152 NMult   150 NNew      2
 ***********************************************************************
 Excited states from <AA,BB:AA,BB> singles matrix:
 ***********************************************************************
 
 Ground to excited state transition densities written to RWF  633
 Ground to excited state transition electric dipole moments (Au):
       state          X           Y           Z        Dip. S.      Osc.
         1        -5.9763     -0.1038      0.4477     35.9279      2.0462
         2        -1.7389     -0.5311      1.2503      4.8693      0.3439
         3         0.3207     -0.0227      0.0152      0.1036      0.0078
         4         0.9401      0.1040     -0.3386      1.0092      0.0880
         5         1.0175     -0.1195      0.2893      1.1332      0.1052
         6        -0.2620      0.3510     -0.6821      0.6571      0.0623
         7        -0.2953      0.6686      0.1819      0.5674      0.0567
         8        -0.9110      2.5813      0.1286      7.5095      0.7694
         9         2.3943      0.9666      0.4769      6.8942      0.7126
        10         0.6128     -0.0003     -0.6123      0.7505      0.0781
 Ground to excited state transition velocity dipole moments (Au):
       state          X           Y           Z        Dip. S.      Osc.
         1         0.5069      0.0079     -0.0378      0.2585      2.0170
         2         0.1764      0.0562     -0.1315      0.0516      0.3244
         3        -0.0307      0.0027     -0.0025      0.0010      0.0056
         4        -0.1205     -0.0134      0.0439      0.0166      0.0847
         5        -0.1405      0.0180     -0.0404      0.0217      0.1039
         6         0.0376     -0.0513      0.0984      0.0137      0.0644
         7         0.0439     -0.0987     -0.0275      0.0124      0.0553
         8         0.1383     -0.3945     -0.0229      0.1753      0.7603
         9        -0.3678     -0.1509     -0.0727      0.1633      0.7023
        10        -0.0982      0.0003      0.0953      0.0187      0.0800
 Ground to excited state transition magnetic dipole moments (Au):
       state          X           Y           Z
         1         0.0751      2.1220      0.7813
         2        -0.0589      2.6906      1.0533
         3        -0.0640     -0.4145     -0.1603
         4        -0.0433     -1.5476     -0.5545
         5        -0.0762      0.3526      0.0653
         6         0.0426     -1.8945     -0.5658
         7        -0.0746      0.5711      1.3176
         8        -0.2117     -0.3335      4.3029
         9        -0.4615     -1.6812      1.6665
        10         0.1069     -2.2729     -1.0378
 Ground to excited state transition velocity quadrupole moments (Au):
       state          XX          YY          ZZ          XY          XZ          YZ
         1         8.8196     -0.6156      0.1785      0.4188     -1.2010     -0.1020
         2        13.3109      0.3333      0.0684      0.9315     -2.5338      0.0937
         3         0.5529      0.3534     -0.1531     -0.3052      0.7372      0.1335
         4        -4.4946      0.2880     -0.3033     -0.7043      1.8565      0.1558
         5         1.8241      0.5935      0.2571      0.4295     -1.1451     -0.0228
         6        -7.4701     -0.3625     -0.2671     -0.7188      2.5706      0.0434
         7         1.7451     -0.3490      0.2244      2.3171     -0.6393      0.0813
         8        -1.8685     -1.9030      0.3942      7.3755      0.3933      0.3541
         9         3.1050      2.1319     -0.3812      2.9254      2.1118      0.8381
        10        -8.4197     -0.5469     -0.6524     -1.5125      2.6292      0.0908
 <0|del|b> * <b|rxdel|0> + <0|del|b> * <b|delr+rdel|0>
 Rotatory Strengths (R) in cgs (10**-40 erg-esu-cm/Gauss)
       state          XX          YY          ZZ    R(velocity)    E-M Angle
         1       -78.4533   -113.0619    401.8203     70.1017       88.73
         2       109.1423    -32.9384    -60.4253      5.2595       89.79
         3        -5.9245     -7.7655     21.5418      2.6173       84.78
         4       -26.2977    -18.8676     53.6597      2.8315       89.58
         5        17.6146     72.6982    -17.1420     24.3903       74.53
         6       255.5189     45.4625    -86.3564     71.5417       79.27
         7      -517.4584     65.5045     -0.2412   -150.7317      126.74
         8        43.8205    207.3376   -234.2587      5.6332       89.88
         9       544.6985   -107.2289    941.8547    459.7748       71.93
        10      -553.3068     58.4960     -3.3597   -166.0568      108.75
 1/2[<0|r|b>*<b|rxdel|0> + (<0|rxdel|b>*<b|r|0>)*]
 Rotatory Strengths (R) in cgs (10**-40 erg-esu-cm/Gauss)
       state          XX          YY          ZZ     R(length)
         1       317.4353    155.7105   -247.3543     75.2638
         2       -72.4223   1010.5544   -931.3584      2.2579
         3        14.5239     -6.6518      1.7224      3.1981
         4        28.7629    113.7901   -132.7612      3.2639
         5        54.8108     29.7907    -13.3552     23.7488
         6         7.8863    470.2158   -272.9236     68.3928
         7       -15.5838   -270.0331   -169.5281   -151.7150
         8      -136.3798    608.8429   -391.2072     27.0853
         9       781.3806   1149.1702   -561.9623    456.1962
        10       -46.3191     -0.4509   -449.3611   -165.3770
  1/2[<0|del|b>*<b|r|0> + (<0|r|b>*<b|del|0>)*] (Au)
       state          X           Y           Z        Dip. S.   Osc.(frdel)
         1        -3.0296     -0.0008     -0.0169      3.0473      2.0316
         2        -0.3067     -0.0299     -0.1644      0.5009      0.3340
         3        -0.0098     -0.0001     -0.0000      0.0099      0.0066
         4        -0.1133     -0.0014     -0.0149      0.1295      0.0863
         5        -0.1429     -0.0021     -0.0117      0.1568      0.1045
         6        -0.0099     -0.0180     -0.0671      0.0950      0.0633
         7        -0.0130     -0.0660     -0.0050      0.0840      0.0560
         8        -0.1260     -1.0183     -0.0029      1.1472      0.7648
         9        -0.8805     -0.1459     -0.0347      1.0611      0.7074
        10        -0.0602     -0.0000     -0.0584      0.1185      0.0790

 Excitation energies and oscillator strengths:
 
 Excited State   1:      Singlet-A      2.3246 eV  533.35 nm  f=2.0462  <S**2>=0.000
     265 -> 270       -0.10157
     267 -> 269       -0.32766
     268 -> 269        0.53492
     268 -> 270       -0.26104
 This state for optimization and/or second-order correction.
 Total Energy, E(TD-HF/TD-DFT) =  -4215.85598886    
 Copying the excited state density for this state as the 1-particle RhoCI density.
 
 Excited State   2:      Singlet-A      2.8826 eV  430.11 nm  f=0.3439  <S**2>=0.000
     265 -> 269       -0.14885
     267 -> 269       -0.39951
     267 -> 270       -0.15298
     268 -> 270        0.49845
     268 -> 271       -0.12457
 
 Excited State   3:      Singlet-A      3.0883 eV  401.47 nm  f=0.0078  <S**2>=0.000
     267 -> 269       -0.37404
     267 -> 270        0.42133
     268 -> 269       -0.35351
     268 -> 270       -0.17580
 
 Excited State   4:      Singlet-A      3.5602 eV  348.25 nm  f=0.0880  <S**2>=0.000
     264 -> 269       -0.12140
     267 -> 269        0.16708
     267 -> 270        0.48609
     268 -> 269        0.26713
     268 -> 270        0.33855
 
 Excited State   5:      Singlet-A      3.7877 eV  327.33 nm  f=0.1052  <S**2>=0.000
     264 -> 269       -0.10354
     264 -> 270        0.12021
     265 -> 269        0.14840
     265 -> 270       -0.15314
     267 -> 269       -0.12559
     267 -> 270       -0.10579
     267 -> 271       -0.36389
     268 -> 270        0.10986
     268 -> 271        0.44861
     268 -> 272       -0.11556
 
 Excited State   6:      Singlet-A      3.8697 eV  320.40 nm  f=0.0623  <S**2>=0.000
     259 -> 270        0.13547
     264 -> 269       -0.33517
     265 -> 269        0.43033
     265 -> 270       -0.13116
     266 -> 269        0.17919
     267 -> 269       -0.10025
     267 -> 271        0.14490
     268 -> 269       -0.10208
     268 -> 271       -0.21681
 
 Excited State   7:      Singlet-A      4.0810 eV  303.81 nm  f=0.0567  <S**2>=0.000
     264 -> 269        0.12239
     265 -> 269       -0.14948
     266 -> 269        0.61254
     266 -> 270       -0.23954
 
 Excited State   8:      Singlet-A      4.1820 eV  296.47 nm  f=0.7694  <S**2>=0.000
     266 -> 269       -0.10878
     267 -> 272        0.14577
     267 -> 273        0.24205
     268 -> 272        0.41431
     268 -> 273        0.39692
 
 Excited State   9:      Singlet-A      4.2187 eV  293.89 nm  f=0.7126  <S**2>=0.000
     264 -> 269       -0.10209
     267 -> 271        0.17278
     267 -> 273        0.14419
     268 -> 272       -0.36313
     268 -> 273        0.39676
     268 -> 276        0.12589
 
 Excited State  10:      Singlet-A      4.2498 eV  291.74 nm  f=0.0781  <S**2>=0.000
     259 -> 269        0.28381
     263 -> 269        0.11368
     264 -> 269       -0.20662
     264 -> 270       -0.24836
     265 -> 270        0.38979
     266 -> 270        0.10136
     267 -> 269       -0.12889
     267 -> 270       -0.12686
     267 -> 271       -0.11673
 SavETr:  write IOETrn=   770 NScale= 10 NData=  16 NLR=1 NState=   10 LETran=     190.
 Hyperfine terms turned off by default for NAtoms > 100.

 **********************************************************************

            Population analysis using the SCF Density.

 **********************************************************************

 Orbital symmetries:
       Occupied  (A) (A) (A) (A) (A) (A) (A) (A) (A) (A) (A) (A)
                 (A) (A) (A) (A) (A) (A) (A) (A) (A) (A) (A) (A)
                 (A) (A) (A) (A) (A) (A) (A) (A) (A) (A) (A) (A)
                 (A) (A) (A) (A) (A) (A) (A) (A) (A) (A) (A) (A)
                 (A) (A) (A) (A) (A) (A) (A) (A) (A) (A) (A) (A)
                 (A) (A) (A) (A) (A) (A) (A) (A) (A) (A) (A) (A)
                 (A) (A) (A) (A) (A) (A) (A) (A) (A) (A) (A) (A)
                 (A) (A) (A) (A) (A) (A) (A) (A) (A) (A) (A) (A)
                 (A) (A) (A) (A) (A) (A) (A) (A) (A) (A) (A) (A)
                 (A) (A) (A) (A) (A) (A) (A) (A) (A) (A) (A) (A)
                 (A) (A) (A) (A) (A) (A) (A) (A) (A) (A) (A) (A)
                 (A) (A) (A) (A) (A) (A) (A) (A) (A) (A) (A) (A)
                 (A) (A) (A) (A) (A) (A) (A) (A) (A) (A) (A) (A)
                 (A) (A) (A) (A) (A) (A) (A) (A) (A) (A) (A) (A)
                 (A) (A) (A) (A) (A) (A) (A) (A) (A) (A) (A) (A)
                 (A) (A) (A) (A) (A) (A) (A) (A) (A) (A) (A) (A)
                 (A) (A) (A) (A) (A) (A) (A) (A) (A) (A) (A) (A)
                 (A) (A) (A) (A) (A) (A) (A) (A) (A) (A) (A) (A)
                 (A) (A) (A) (A) (A) (A) (A) (A) (A) (A) (A) (A)
                 (A) (A) (A) (A) (A) (A) (A) (A) (A) (A) (A) (A)
                 (A) (A) (A) (A) (A) (A) (A) (A) (A) (A) (A) (A)
                 (A) (A) (A) (A) (A) (A) (A) (A) (A) (A) (A) (A)
                 (A) (A) (A) (A)
       Virtual   (A) (A) (A) (A) (A) (A) (A) (A) (A) (A) (A) (A)
                 (A) (A) (A) (A) (A) (A) (A) (A) (A) (A) (A) (A)
                 (A) (A) (A) (A) (A) (A) (A) (A) (A) (A) (A) (A)
                 (A) (A) (A) (A) (A) (A) (A) (A) (A) (A) (A) (A)
                 (A) (A) (A) (A) (A) (A) (A) (A) (A) (A) (A) (A)
                 (A) (A) (A) (A) (A) (A) (A) (A) (A) (A) (A) (A)
                 (A) (A) (A) (A) (A) (A) (A) (A) (A) (A) (A) (A)
                 (A) (A) (A) (A) (A) (A) (A) (A) (A) (A) (A) (A)
                 (A) (A) (A) (A) (A) (A) (A) (A) (A) (A) (A) (A)
                 (A) (A) (A) (A) (A) (A) (A) (A) (A) (A) (A) (A)
                 (A) (A) (A) (A) (A) (A) (A) (A) (A) (A) (A) (A)
                 (A) (A) (A) (A) (A) (A) (A) (A) (A) (A) (A) (A)
                 (A) (A) (A) (A) (A) (A) (A) (A) (A) (A) (A) (A)
                 (A) (A) (A) (A) (A) (A) (A) (A) (A) (A) (A) (A)
                 (A) (A) (A) (A) (A) (A) (A) (A) (A) (A) (A) (A)
                 (A) (A) (A) (A) (A) (A) (A) (A) (A) (A) (A) (A)
                 (A) (A) (A) (A) (A) (A) (A) (A) (A) (A) (A) (A)
                 (A) (A) (A) (A) (A) (A) (A) (A) (A) (A) (A) (A)
                 (A) (A) (A) (A) (A) (A) (A) (A) (A) (A) (A) (A)
                 (A) (A) (A) (A) (A) (A) (A) (A) (A) (A) (A) (A)
                 (A) (A) (A) (A) (A) (A) (A) (A) (A) (A) (A) (A)
                 (A) (A) (A) (A) (A) (A) (A) (A) (A) (A) (A) (A)
                 (A) (A) (A) (A) (A) (A) (A) (A) (A) (A) (A) (A)
                 (A) (A) (A) (A) (A) (A) (A) (A) (A) (A) (A) (A)
                 (A) (A) (A) (A) (A) (A) (A) (A) (A) (A) (A) (A)
                 (A) (A) (A) (A) (A) (A) (A) (A) (A) (A) (A) (A)
                 (A) (A) (A) (A) (A) (A) (A) (A) (A) (A) (A) (A)
                 (A) (A) (A) (A) (A) (A) (A) (A) (A) (A) (A) (A)
                 (A) (A) (A) (A) (A) (A) (A) (A) (A) (A) (A) (A)
                 (A) (A) (A) (A) (A) (A) (A) (A) (A) (A) (A) (A)
                 (A) (A) (A) (A) (A) (A) (A) (A) (A) (A) (A) (A)
                 (A) (A) (A) (A) (A) (A) (A) (A) (A) (A) (A) (A)
                 (A) (A) (A) (A) (A) (A) (A) (A) (A) (A) (A) (A)
                 (A) (A) (A) (A) (A) (A) (A) (A) (A) (A) (A) (A)
                 (A) (A) (A) (A) (A) (A) (A) (A) (A) (A) (A) (A)
                 (A) (A) (A) (A) (A) (A) (A) (A) (A) (A) (A) (A)
                 (A) (A) (A) (A) (A) (A) (A) (A) (A) (A) (A) (A)
                 (A) (A) (A) (A) (A) (A) (A) (A) (A) (A) (A) (A)
                 (A) (A) (A) (A) (A) (A) (A) (A) (A) (A) (A) (A)
                 (A) (A) (A) (A) (A) (A) (A) (A) (A) (A) (A) (A)
                 (A) (A) (A) (A) (A) (A) (A) (A) (A) (A) (A) (A)
                 (A) (A) (A) (A) (A) (A) (A) (A) (A) (A) (A) (A)
                 (A) (A) (A) (A) (A) (A) (A) (A) (A) (A) (A) (A)
                 (A) (A) (A) (A) (A) (A) (A) (A) (A) (A) (A) (A)
                 (A) (A) (A) (A) (A) (A) (A) (A) (A) (A) (A) (A)
                 (A) (A) (A) (A) (A) (A) (A) (A) (A) (A) (A) (A)
                 (A) (A) (A) (A) (A) (A) (A) (A) (A) (A) (A) (A)
                 (A) (A) (A) (A) (A) (A) (A) (A) (A) (A) (A) (A)
                 (A) (A) (A) (A) (A) (A) (A) (A) (A) (A) (A) (A)
                 (A) (A) (A) (A) (A) (A) (A) (A) (A) (A) (A) (A)
                 (A) (A) (A) (A) (A) (A) (A) (A) (A) (A) (A) (A)
                 (A) (A) (A) (A) (A) (A) (A) (A) (A) (A) (A) (A)
                 (A) (A) (A) (A) (A) (A) (A) (A) (A) (A) (A) (A)
                 (A) (A) (A) (A) (A) (A) (A) (A) (A) (A) (A) (A)
                 (A) (A) (A) (A) (A) (A) (A) (A) (A) (A) (A) (A)
                 (A) (A) (A) (A) (A) (A) (A) (A) (A) (A) (A) (A)
                 (A) (A) (A) (A) (A) (A) (A) (A) (A) (A) (A) (A)
                 (A) (A) (A) (A) (A) (A) (A) (A) (A) (A) (A) (A)
                 (A) (A) (A) (A) (A) (A) (A) (A) (A) (A) (A) (A)
                 (A) (A) (A) (A) (A) (A) (A) (A) (A) (A) (A) (A)
                 (A) (A) (A) (A) (A) (A) (A) (A) (A) (A) (A) (A)
                 (A) (A) (A) (A) (A) (A) (A) (A) (A) (A) (A) (A)
                 (A) (A) (A) (A) (A) (A) (A) (A) (A) (A) (A) (A)
                 (A) (A) (A) (A) (A) (A) (A) (A) (A) (A) (A) (A)
                 (A) (A) (A) (A) (A) (A) (A) (A) (A) (A) (A) (A)
                 (A) (A) (A) (A) (A) (A) (A) (A) (A) (A) (A) (A)
                 (A) (A) (A) (A) (A) (A) (A) (A) (A) (A) (A) (A)
                 (A) (A) (A) (A) (A) (A) (A) (A) (A) (A) (A) (A)
                 (A) (A) (A) (A) (A) (A) (A) (A) (A) (A) (A) (A)
                 (A) (A) (A) (A) (A) (A) (A) (A) (A) (A) (A) (A)
                 (A) (A) (A) (A) (A) (A) (A) (A) (A) (A) (A) (A)
                 (A) (A) (A) (A) (A) (A) (A) (A) (A) (A) (A) (A)
                 (A) (A) (A) (A) (A) (A) (A) (A) (A) (A) (A) (A)
                 (A) (A) (A) (A) (A) (A) (A) (A) (A) (A) (A) (A)
                 (A) (A) (A) (A) (A) (A) (A) (A) (A) (A) (A) (A)
                 (A) (A) (A) (A) (A) (A) (A) (A) (A) (A) (A) (A)
                 (A) (A) (A) (A) (A) (A) (A) (A) (A) (A) (A) (A)
                 (A) (A) (A) (A) (A) (A) (A) (A) (A) (A) (A) (A)
                 (A) (A) (A) (A) (A) (A) (A) (A) (A) (A) (A) (A)
                 (A) (A) (A) (A) (A) (A) (A) (A) (A) (A) (A) (A)
                 (A) (A) (A) (A) (A) (A) (A) (A) (A) (A) (A) (A)
                 (A) (A) (A) (A) (A) (A) (A) (A) (A) (A) (A) (A)
                 (A) (A) (A) (A) (A) (A) (A) (A) (A) (A) (A) (A)
                 (A) (A) (A) (A) (A) (A) (A) (A) (A) (A) (A) (A)
                 (A) (A) (A) (A) (A) (A) (A) (A) (A) (A) (A) (A)
                 (A) (A) (A) (A) (A) (A) (A) (A) (A) (A) (A) (A)
                 (A) (A) (A) (A) (A) (A) (A) (A) (A) (A) (A) (A)
                 (A) (A) (A) (A) (A) (A) (A) (A) (A) (A) (A) (A)
                 (A) (A) (A) (A) (A) (A) (A) (A) (A) (A) (A) (A)
                 (A) (A) (A) (A) (A) (A) (A) (A) (A) (A) (A) (A)
                 (A) (A) (A) (A) (A) (A) (A) (A) (A) (A) (A) (A)
                 (A) (A) (A) (A) (A) (A) (A) (A) (A) (A) (A) (A)
                 (A) (A) (A) (A) (A) (A) (A) (A) (A) (A) (A) (A)
                 (A) (A) (A) (A) (A) (A) (A) (A) (A) (A) (A) (A)
                 (A) (A) (A) (A) (A) (A) (A) (A) (A) (A) (A) (A)
                 (A) (A) (A) (A) (A) (A) (A) (A) (A) (A) (A) (A)
                 (A) (A) (A) (A) (A) (A) (A) (A) (A) (A) (A) (A)
                 (A) (A) (A) (A) (A) (A) (A) (A) (A) (A) (A) (A)
                 (A) (A) (A) (A) (A) (A) (A) (A) (A) (A) (A) (A)
                 (A) (A) (A) (A) (A) (A) (A) (A) (A) (A) (A) (A)
                 (A) (A) (A) (A) (A) (A) (A) (A) (A) (A) (A) (A)
                 (A) (A) (A) (A) (A) (A) (A) (A) (A) (A) (A) (A)
                 (A) (A) (A) (A) (A) (A) (A) (A) (A) (A) (A) (A)
                 (A) (A) (A) (A) (A) (A) (A) (A) (A) (A) (A) (A)
                 (A) (A) (A) (A) (A) (A) (A) (A) (A) (A) (A) (A)
                 (A) (A) (A) (A) (A) (A) (A) (A) (A) (A) (A) (A)
                 (A) (A) (A) (A) (A) (A) (A) (A) (A) (A) (A) (A)
                 (A) (A) (A) (A) (A) (A) (A) (A) (A) (A) (A) (A)
                 (A) (A) (A) (A) (A) (A) (A) (A) (A) (A) (A) (A)
                 (A) (A) (A) (A) (A) (A) (A) (A) (A) (A) (A) (A)
                 (A) (A) (A) (A) (A) (A) (A) (A) (A) (A) (A) (A)
                 (A) (A) (A) (A) (A) (A) (A) (A) (A) (A) (A) (A)
                 (A) (A) (A) (A) (A) (A) (A) (A) (A) (A) (A) (A)
                 (A) (A) (A) (A) (A) (A) (A) (A)
 The electronic state is 1-A.
 Alpha  occ. eigenvalues --  -90.14126 -90.09077 -90.08413 -19.72584 -19.70928
 Alpha  occ. eigenvalues --  -19.70769 -19.70616 -19.68912 -19.66321 -14.84485
 Alpha  occ. eigenvalues --  -14.84453 -14.82677 -14.82101 -10.73937 -10.65893
 Alpha  occ. eigenvalues --  -10.65629 -10.65540 -10.65367 -10.65365 -10.64969
 Alpha  occ. eigenvalues --  -10.64762 -10.64671 -10.64589 -10.64500 -10.64351
 Alpha  occ. eigenvalues --  -10.64224 -10.64202 -10.64026 -10.63945 -10.63935
 Alpha  occ. eigenvalues --  -10.63605 -10.63574 -10.63039 -10.63001 -10.62983
 Alpha  occ. eigenvalues --  -10.62949 -10.62779 -10.62537 -10.62139 -10.62027
 Alpha  occ. eigenvalues --  -10.61729 -10.61477 -10.61240 -10.61230 -10.61189
 Alpha  occ. eigenvalues --  -10.60718 -10.60659 -10.60336 -10.60009 -10.59980
 Alpha  occ. eigenvalues --  -10.59652 -10.59416 -10.59317 -10.59308 -10.59175
 Alpha  occ. eigenvalues --  -10.59099 -10.58965 -10.58905 -10.58856 -10.58847
 Alpha  occ. eigenvalues --  -10.58838 -10.58730 -10.58578 -10.58562 -10.58524
 Alpha  occ. eigenvalues --  -10.58480 -10.58444 -10.58386 -10.58383 -10.58343
 Alpha  occ. eigenvalues --  -10.58328 -10.58238 -10.58065 -10.57570  -8.42492
 Alpha  occ. eigenvalues --   -8.37795  -8.37141  -6.28318  -6.27900  -6.27704
 Alpha  occ. eigenvalues --   -6.23566  -6.23307  -6.23012  -6.22919  -6.22657
 Alpha  occ. eigenvalues --   -6.22347  -1.25315  -1.21131  -1.20852  -1.20754
 Alpha  occ. eigenvalues --   -1.18947  -1.16614  -1.16053  -1.09599  -1.06055
 Alpha  occ. eigenvalues --   -1.05313  -1.02830  -1.02086  -1.00791  -0.99550
 Alpha  occ. eigenvalues --   -0.98964  -0.98632  -0.97595  -0.96923  -0.96487
 Alpha  occ. eigenvalues --   -0.95703  -0.94788  -0.91354  -0.90665  -0.89785
 Alpha  occ. eigenvalues --   -0.89038  -0.88770  -0.88099  -0.87751  -0.86900
 Alpha  occ. eigenvalues --   -0.86647  -0.86270  -0.85901  -0.85690  -0.85420
 Alpha  occ. eigenvalues --   -0.85052  -0.84511  -0.84446  -0.82744  -0.82332
 Alpha  occ. eigenvalues --   -0.81338  -0.80450  -0.80439  -0.78802  -0.78567
 Alpha  occ. eigenvalues --   -0.77670  -0.75543  -0.73625  -0.73281  -0.72955
 Alpha  occ. eigenvalues --   -0.72384  -0.72234  -0.71692  -0.71241  -0.71013
 Alpha  occ. eigenvalues --   -0.70729  -0.69987  -0.69596  -0.69075  -0.68887
 Alpha  occ. eigenvalues --   -0.68369  -0.67278  -0.67108  -0.66295  -0.65627
 Alpha  occ. eigenvalues --   -0.63941  -0.63813  -0.62906  -0.62500  -0.61947
 Alpha  occ. eigenvalues --   -0.61750  -0.61518  -0.61147  -0.60013  -0.59189
 Alpha  occ. eigenvalues --   -0.58907  -0.58582  -0.58348  -0.57614  -0.57320
 Alpha  occ. eigenvalues --   -0.57209  -0.56536  -0.56161  -0.55814  -0.55735
 Alpha  occ. eigenvalues --   -0.55585  -0.55117  -0.55081  -0.54921  -0.54323
 Alpha  occ. eigenvalues --   -0.54054  -0.53643  -0.53632  -0.53243  -0.53166
 Alpha  occ. eigenvalues --   -0.53067  -0.52866  -0.52599  -0.52459  -0.52234
 Alpha  occ. eigenvalues --   -0.52139  -0.51979  -0.51802  -0.51446  -0.51268
 Alpha  occ. eigenvalues --   -0.51125  -0.50713  -0.50437  -0.50068  -0.49536
 Alpha  occ. eigenvalues --   -0.49391  -0.49182  -0.49071  -0.48845  -0.48639
 Alpha  occ. eigenvalues --   -0.48481  -0.48216  -0.48049  -0.47523  -0.47436
 Alpha  occ. eigenvalues --   -0.47222  -0.46811  -0.46538  -0.46333  -0.45904
 Alpha  occ. eigenvalues --   -0.45788  -0.45640  -0.45503  -0.45256  -0.45081
 Alpha  occ. eigenvalues --   -0.44999  -0.44850  -0.44507  -0.44339  -0.44169
 Alpha  occ. eigenvalues --   -0.44131  -0.43492  -0.43334  -0.43124  -0.42895
 Alpha  occ. eigenvalues --   -0.42773  -0.42727  -0.42503  -0.42008  -0.41892
 Alpha  occ. eigenvalues --   -0.41747  -0.41561  -0.41505  -0.41227  -0.40896
 Alpha  occ. eigenvalues --   -0.40417  -0.40248  -0.40092  -0.40042  -0.39892
 Alpha  occ. eigenvalues --   -0.39875  -0.39762  -0.38854  -0.38412  -0.37892
 Alpha  occ. eigenvalues --   -0.37692  -0.37077  -0.36144  -0.35890  -0.34839
 Alpha  occ. eigenvalues --   -0.34279  -0.32606  -0.32002  -0.31541  -0.31401
 Alpha  occ. eigenvalues --   -0.31306  -0.30751  -0.30374  -0.30177  -0.29406
 Alpha  occ. eigenvalues --   -0.29321  -0.29062  -0.28790  -0.27580  -0.25959
 Alpha  occ. eigenvalues --   -0.24920  -0.22783  -0.21224
 Alpha virt. eigenvalues --   -0.08142  -0.06544  -0.02491   0.00465   0.00723
 Alpha virt. eigenvalues --    0.01212   0.01860   0.02027   0.03315   0.03427
 Alpha virt. eigenvalues --    0.03512   0.04156   0.04242   0.04449   0.04527
 Alpha virt. eigenvalues --    0.04912   0.05577   0.05741   0.06059   0.06304
 Alpha virt. eigenvalues --    0.06727   0.06984   0.07101   0.07322   0.07533
 Alpha virt. eigenvalues --    0.07897   0.08090   0.08132   0.08768   0.08869
 Alpha virt. eigenvalues --    0.09031   0.09156   0.09366   0.09637   0.09795
 Alpha virt. eigenvalues --    0.10139   0.10320   0.10686   0.10882   0.11105
 Alpha virt. eigenvalues --    0.11567   0.11911   0.12019   0.12158   0.12296
 Alpha virt. eigenvalues --    0.12357   0.12455   0.12706   0.12784   0.13129
 Alpha virt. eigenvalues --    0.13374   0.13503   0.14161   0.14339   0.14562
 Alpha virt. eigenvalues --    0.14788   0.15193   0.15585   0.15673   0.15979
 Alpha virt. eigenvalues --    0.16050   0.16103   0.16183   0.16312   0.16675
 Alpha virt. eigenvalues --    0.16811   0.17033   0.17255   0.17556   0.17747
 Alpha virt. eigenvalues --    0.17891   0.18231   0.18371   0.18520   0.18797
 Alpha virt. eigenvalues --    0.19131   0.19221   0.19294   0.19776   0.20035
 Alpha virt. eigenvalues --    0.20349   0.20385   0.20526   0.20683   0.20973
 Alpha virt. eigenvalues --    0.21642   0.22109   0.22281   0.22917   0.23100
 Alpha virt. eigenvalues --    0.23383   0.23579   0.23609   0.23701   0.24070
 Alpha virt. eigenvalues --    0.24405   0.24574   0.25593   0.25866   0.26587
 Alpha virt. eigenvalues --    0.26674   0.26950   0.27484   0.28314   0.28526
 Alpha virt. eigenvalues --    0.28651   0.28740   0.29023   0.29151   0.29674
 Alpha virt. eigenvalues --    0.29828   0.29991   0.30678   0.30811   0.30898
 Alpha virt. eigenvalues --    0.31243   0.31767   0.31992   0.32110   0.32266
 Alpha virt. eigenvalues --    0.32569   0.33153   0.33588   0.33662   0.33767
 Alpha virt. eigenvalues --    0.33836   0.34052   0.34276   0.34315   0.34576
 Alpha virt. eigenvalues --    0.34696   0.34798   0.35122   0.35286   0.35518
 Alpha virt. eigenvalues --    0.35619   0.35718   0.36323   0.36452   0.36855
 Alpha virt. eigenvalues --    0.36895   0.37325   0.37685   0.38167   0.38286
 Alpha virt. eigenvalues --    0.38476   0.38982   0.39180   0.39355   0.39841
 Alpha virt. eigenvalues --    0.39953   0.39971   0.40468   0.40793   0.41111
 Alpha virt. eigenvalues --    0.41247   0.41697   0.41852   0.42088   0.42305
 Alpha virt. eigenvalues --    0.42344   0.42558   0.42608   0.42774   0.42830
 Alpha virt. eigenvalues --    0.42967   0.43111   0.43328   0.43430   0.43589
 Alpha virt. eigenvalues --    0.43949   0.44115   0.44309   0.44424   0.44546
 Alpha virt. eigenvalues --    0.44818   0.45095   0.45205   0.45293   0.45372
 Alpha virt. eigenvalues --    0.45550   0.45805   0.46053   0.46279   0.46360
 Alpha virt. eigenvalues --    0.46577   0.46695   0.46746   0.46908   0.47000
 Alpha virt. eigenvalues --    0.47069   0.47358   0.47684   0.47819   0.47983
 Alpha virt. eigenvalues --    0.48248   0.48392   0.48507   0.48600   0.48683
 Alpha virt. eigenvalues --    0.48835   0.48955   0.49087   0.49282   0.49362
 Alpha virt. eigenvalues --    0.49414   0.49600   0.49750   0.50095   0.50248
 Alpha virt. eigenvalues --    0.50259   0.50499   0.50548   0.50657   0.50823
 Alpha virt. eigenvalues --    0.51078   0.51112   0.51315   0.51418   0.51681
 Alpha virt. eigenvalues --    0.52045   0.52181   0.52472   0.52620   0.52985
 Alpha virt. eigenvalues --    0.53293   0.53456   0.53743   0.53832   0.54000
 Alpha virt. eigenvalues --    0.54119   0.54387   0.54465   0.54732   0.54808
 Alpha virt. eigenvalues --    0.55055   0.55453   0.55520   0.55622   0.55754
 Alpha virt. eigenvalues --    0.55988   0.56323   0.56463   0.56847   0.56967
 Alpha virt. eigenvalues --    0.57356   0.57431   0.57598   0.58011   0.58262
 Alpha virt. eigenvalues --    0.58673   0.58942   0.59048   0.59340   0.59517
 Alpha virt. eigenvalues --    0.59576   0.59665   0.59760   0.60051   0.60505
 Alpha virt. eigenvalues --    0.60620   0.61128   0.61229   0.61377   0.61550
 Alpha virt. eigenvalues --    0.61847   0.61928   0.62063   0.62171   0.62316
 Alpha virt. eigenvalues --    0.62565   0.62642   0.62832   0.63056   0.63258
 Alpha virt. eigenvalues --    0.63691   0.63751   0.63771   0.64186   0.64343
 Alpha virt. eigenvalues --    0.64439   0.64471   0.64542   0.64666   0.64879
 Alpha virt. eigenvalues --    0.65081   0.65205   0.65332   0.65492   0.65712
 Alpha virt. eigenvalues --    0.65887   0.66044   0.66214   0.66361   0.66474
 Alpha virt. eigenvalues --    0.66757   0.66852   0.66936   0.67096   0.67365
 Alpha virt. eigenvalues --    0.67524   0.67661   0.67823   0.68074   0.68093
 Alpha virt. eigenvalues --    0.68260   0.68309   0.68559   0.68670   0.68915
 Alpha virt. eigenvalues --    0.69044   0.69147   0.69334   0.69536   0.69729
 Alpha virt. eigenvalues --    0.69816   0.70082   0.70129   0.70235   0.70527
 Alpha virt. eigenvalues --    0.70599   0.70685   0.70964   0.71180   0.71232
 Alpha virt. eigenvalues --    0.71354   0.71543   0.72002   0.72108   0.72280
 Alpha virt. eigenvalues --    0.72615   0.72943   0.73043   0.73088   0.73613
 Alpha virt. eigenvalues --    0.73902   0.74029   0.74192   0.74577   0.75294
 Alpha virt. eigenvalues --    0.75555   0.75803   0.76084   0.76473   0.76689
 Alpha virt. eigenvalues --    0.76878   0.77215   0.77284   0.77574   0.77747
 Alpha virt. eigenvalues --    0.77918   0.78423   0.78590   0.79201   0.79500
 Alpha virt. eigenvalues --    0.79671   0.79708   0.80242   0.80574   0.80671
 Alpha virt. eigenvalues --    0.81167   0.81432   0.81565   0.81737   0.82075
 Alpha virt. eigenvalues --    0.82386   0.82410   0.82975   0.83133   0.83247
 Alpha virt. eigenvalues --    0.83645   0.84076   0.84297   0.84538   0.84968
 Alpha virt. eigenvalues --    0.85101   0.85249   0.85710   0.85920   0.86154
 Alpha virt. eigenvalues --    0.86236   0.86866   0.87090   0.87176   0.87556
 Alpha virt. eigenvalues --    0.87780   0.88085   0.88405   0.88725   0.88812
 Alpha virt. eigenvalues --    0.89166   0.89407   0.89591   0.89756   0.89929
 Alpha virt. eigenvalues --    0.90022   0.90304   0.90344   0.90390   0.90442
 Alpha virt. eigenvalues --    0.90883   0.91053   0.91398   0.91682   0.91899
 Alpha virt. eigenvalues --    0.92256   0.92317   0.92744   0.93004   0.93286
 Alpha virt. eigenvalues --    0.93532   0.93742   0.93949   0.94194   0.94335
 Alpha virt. eigenvalues --    0.94607   0.94736   0.95087   0.95464   0.95690
 Alpha virt. eigenvalues --    0.95771   0.95962   0.96242   0.96361   0.96643
 Alpha virt. eigenvalues --    0.96907   0.97000   0.97367   0.97478   0.97811
 Alpha virt. eigenvalues --    0.98098   0.98747   0.98847   0.99255   0.99696
 Alpha virt. eigenvalues --    0.99831   1.00075   1.00203   1.00449   1.00660
 Alpha virt. eigenvalues --    1.01155   1.01372   1.01640   1.01979   1.02303
 Alpha virt. eigenvalues --    1.02962   1.03312   1.03374   1.03884   1.03994
 Alpha virt. eigenvalues --    1.04341   1.04419   1.04637   1.04937   1.05194
 Alpha virt. eigenvalues --    1.05443   1.05919   1.06221   1.06302   1.06701
 Alpha virt. eigenvalues --    1.07010   1.07145   1.07775   1.08124   1.08399
 Alpha virt. eigenvalues --    1.08616   1.08748   1.09020   1.09122   1.09310
 Alpha virt. eigenvalues --    1.09610   1.09983   1.10197   1.10408   1.10601
 Alpha virt. eigenvalues --    1.11002   1.11098   1.11525   1.11590   1.11806
 Alpha virt. eigenvalues --    1.12007   1.12320   1.12532   1.12768   1.13183
 Alpha virt. eigenvalues --    1.13358   1.14136   1.14155   1.14374   1.14998
 Alpha virt. eigenvalues --    1.15078   1.15459   1.15636   1.16189   1.16514
 Alpha virt. eigenvalues --    1.16882   1.17255   1.17890   1.18122   1.18283
 Alpha virt. eigenvalues --    1.18384   1.18462   1.18877   1.19135   1.19604
 Alpha virt. eigenvalues --    1.19909   1.20175   1.20520   1.20764   1.21239
 Alpha virt. eigenvalues --    1.21401   1.21523   1.22124   1.22301   1.22449
 Alpha virt. eigenvalues --    1.22593   1.23082   1.23584   1.23982   1.24046
 Alpha virt. eigenvalues --    1.24524   1.25050   1.25153   1.25791   1.26011
 Alpha virt. eigenvalues --    1.26405   1.26713   1.27155   1.27364   1.28048
 Alpha virt. eigenvalues --    1.28433   1.29021   1.29582   1.30041   1.30357
 Alpha virt. eigenvalues --    1.30938   1.31676   1.31962   1.32303   1.32935
 Alpha virt. eigenvalues --    1.33378   1.34133   1.34209   1.35037   1.35473
 Alpha virt. eigenvalues --    1.35679   1.36329   1.36898   1.37400   1.37926
 Alpha virt. eigenvalues --    1.37934   1.38520   1.38596   1.38712   1.39898
 Alpha virt. eigenvalues --    1.40057   1.40484   1.41293   1.42168   1.43425
 Alpha virt. eigenvalues --    1.44301   1.44526   1.45082   1.45184   1.45308
 Alpha virt. eigenvalues --    1.45552   1.45921   1.46324   1.47255   1.47329
 Alpha virt. eigenvalues --    1.47962   1.48205   1.48256   1.48758   1.48931
 Alpha virt. eigenvalues --    1.49366   1.49558   1.50078   1.50353   1.51035
 Alpha virt. eigenvalues --    1.51081   1.51335   1.51423   1.51591   1.51988
 Alpha virt. eigenvalues --    1.52277   1.52385   1.52426   1.52646   1.52731
 Alpha virt. eigenvalues --    1.53222   1.53633   1.54006   1.54103   1.54331
 Alpha virt. eigenvalues --    1.54480   1.54531   1.54760   1.54846   1.54987
 Alpha virt. eigenvalues --    1.55303   1.55471   1.55642   1.55902   1.55930
 Alpha virt. eigenvalues --    1.56401   1.56644   1.56794   1.57182   1.57341
 Alpha virt. eigenvalues --    1.57518   1.57639   1.57988   1.58039   1.58432
 Alpha virt. eigenvalues --    1.58485   1.58834   1.59107   1.59425   1.59582
 Alpha virt. eigenvalues --    1.59874   1.60435   1.60921   1.60982   1.61054
 Alpha virt. eigenvalues --    1.61477   1.62069   1.62328   1.62890   1.63154
 Alpha virt. eigenvalues --    1.63494   1.63553   1.63679   1.63796   1.64113
 Alpha virt. eigenvalues --    1.64275   1.64376   1.64594   1.64827   1.65255
 Alpha virt. eigenvalues --    1.65525   1.65616   1.66139   1.66444   1.66747
 Alpha virt. eigenvalues --    1.66926   1.67050   1.67097   1.67382   1.67638
 Alpha virt. eigenvalues --    1.67829   1.68227   1.68419   1.68645   1.68894
 Alpha virt. eigenvalues --    1.69182   1.69350   1.69523   1.69561   1.69719
 Alpha virt. eigenvalues --    1.70056   1.70522   1.71034   1.71077   1.71571
 Alpha virt. eigenvalues --    1.71824   1.72292   1.72846   1.73268   1.73505
 Alpha virt. eigenvalues --    1.73662   1.74189   1.74475   1.74638   1.74819
 Alpha virt. eigenvalues --    1.74873   1.75119   1.75299   1.75588   1.75650
 Alpha virt. eigenvalues --    1.75936   1.76051   1.76347   1.76394   1.76529
 Alpha virt. eigenvalues --    1.76620   1.76702   1.76856   1.77183   1.77509
 Alpha virt. eigenvalues --    1.78175   1.78539   1.78949   1.79253   1.79465
 Alpha virt. eigenvalues --    1.79689   1.80152   1.80375   1.80762   1.80991
 Alpha virt. eigenvalues --    1.81454   1.81813   1.82109   1.82460   1.82665
 Alpha virt. eigenvalues --    1.83129   1.83413   1.83691   1.83991   1.84015
 Alpha virt. eigenvalues --    1.84144   1.84323   1.84772   1.84798   1.84911
 Alpha virt. eigenvalues --    1.85373   1.85613   1.85730   1.85793   1.86012
 Alpha virt. eigenvalues --    1.86204   1.86729   1.86874   1.86949   1.87889
 Alpha virt. eigenvalues --    1.88101   1.88389   1.88439   1.88729   1.89006
 Alpha virt. eigenvalues --    1.89107   1.89412   1.89847   1.89944   1.90402
 Alpha virt. eigenvalues --    1.90626   1.91173   1.91394   1.91771   1.92359
 Alpha virt. eigenvalues --    1.92420   1.94069   1.95122   1.95647   1.95825
 Alpha virt. eigenvalues --    1.96022   1.96783   1.96972   1.97282   1.97791
 Alpha virt. eigenvalues --    1.97952   1.98146   1.98482   1.98916   1.98986
 Alpha virt. eigenvalues --    1.99586   1.99917   2.00027   2.00369   2.00735
 Alpha virt. eigenvalues --    2.00883   2.00937   2.01372   2.01408   2.01551
 Alpha virt. eigenvalues --    2.01822   2.01995   2.02192   2.02656   2.02671
 Alpha virt. eigenvalues --    2.02861   2.03143   2.03468   2.03553   2.04066
 Alpha virt. eigenvalues --    2.04335   2.04524   2.04917   2.05130   2.05387
 Alpha virt. eigenvalues --    2.05509   2.06002   2.06475   2.06813   2.06835
 Alpha virt. eigenvalues --    2.07300   2.07570   2.07702   2.07820   2.08349
 Alpha virt. eigenvalues --    2.08659   2.08780   2.08812   2.09102   2.09378
 Alpha virt. eigenvalues --    2.09650   2.10045   2.10144   2.10506   2.10720
 Alpha virt. eigenvalues --    2.10846   2.11141   2.11970   2.12247   2.12510
 Alpha virt. eigenvalues --    2.12843   2.13386   2.13692   2.14130   2.14351
 Alpha virt. eigenvalues --    2.14497   2.14972   2.14997   2.15529   2.15618
 Alpha virt. eigenvalues --    2.15802   2.16343   2.16580   2.17243   2.17279
 Alpha virt. eigenvalues --    2.17692   2.17806   2.18020   2.18480   2.18842
 Alpha virt. eigenvalues --    2.19156   2.19334   2.19551   2.19770   2.20065
 Alpha virt. eigenvalues --    2.20259   2.20558   2.20926   2.21268   2.21461
 Alpha virt. eigenvalues --    2.21894   2.22001   2.22057   2.22388   2.22992
 Alpha virt. eigenvalues --    2.23382   2.23463   2.23715   2.24250   2.24810
 Alpha virt. eigenvalues --    2.25062   2.25750   2.26010   2.26838   2.27545
 Alpha virt. eigenvalues --    2.27911   2.28750   2.29268   2.29901   2.30101
 Alpha virt. eigenvalues --    2.30319   2.32375   2.32599   2.32923   2.33779
 Alpha virt. eigenvalues --    2.34698   2.34813   2.35239   2.35716   2.36768
 Alpha virt. eigenvalues --    2.37704   2.39311   2.39800   2.40273   2.40335
 Alpha virt. eigenvalues --    2.40586   2.41730   2.42205   2.42416   2.42519
 Alpha virt. eigenvalues --    2.42667   2.42856   2.43214   2.43355   2.43901
 Alpha virt. eigenvalues --    2.44438   2.44534   2.45079   2.45456   2.45563
 Alpha virt. eigenvalues --    2.46025   2.46269   2.46324   2.46856   2.47199
 Alpha virt. eigenvalues --    2.47463   2.47925   2.48268   2.49330   2.49511
 Alpha virt. eigenvalues --    2.49732   2.50233   2.50421   2.50622   2.50689
 Alpha virt. eigenvalues --    2.50957   2.51140   2.51486   2.51823   2.52213
 Alpha virt. eigenvalues --    2.52443   2.53139   2.53456   2.53601   2.54165
 Alpha virt. eigenvalues --    2.54465   2.54676   2.55514   2.56230   2.56322
 Alpha virt. eigenvalues --    2.56986   2.57394   2.57565   2.58088   2.58179
 Alpha virt. eigenvalues --    2.58833   2.58851   2.60208   2.60329   2.60516
 Alpha virt. eigenvalues --    2.61248   2.61606   2.61884   2.61992   2.62145
 Alpha virt. eigenvalues --    2.62211   2.62440   2.62913   2.63102   2.63316
 Alpha virt. eigenvalues --    2.63948   2.64679   2.65219   2.65349   2.65636
 Alpha virt. eigenvalues --    2.66320   2.66827   2.67453   2.67864   2.68252
 Alpha virt. eigenvalues --    2.68411   2.68553   2.69408   2.69731   2.69788
 Alpha virt. eigenvalues --    2.69831   2.70317   2.70802   2.70888   2.71446
 Alpha virt. eigenvalues --    2.71831   2.71995   2.72394   2.72649   2.72773
 Alpha virt. eigenvalues --    2.72829   2.73210   2.73344   2.73409   2.73702
 Alpha virt. eigenvalues --    2.73878   2.74592   2.74794   2.74849   2.75129
 Alpha virt. eigenvalues --    2.75457   2.75496   2.75753   2.75908   2.76464
 Alpha virt. eigenvalues --    2.76585   2.77314   2.77522   2.77783   2.78054
 Alpha virt. eigenvalues --    2.78250   2.78573   2.78643   2.78836   2.79069
 Alpha virt. eigenvalues --    2.79377   2.79551   2.79657   2.79805   2.80254
 Alpha virt. eigenvalues --    2.80498   2.80617   2.80873   2.80999   2.81522
 Alpha virt. eigenvalues --    2.82167   2.82264   2.82577   2.82783   2.83449
 Alpha virt. eigenvalues --    2.83762   2.84399   2.84748   2.85051   2.85351
 Alpha virt. eigenvalues --    2.85638   2.85839   2.86428   2.86970   2.87142
 Alpha virt. eigenvalues --    2.87356   2.87625   2.88614   2.88725   2.89079
 Alpha virt. eigenvalues --    2.89188   2.89392   2.89895   2.90344   2.90854
 Alpha virt. eigenvalues --    2.91404   2.92017   2.92326   2.93112   2.93288
 Alpha virt. eigenvalues --    2.93875   2.94161   2.94341   2.94826   2.95425
 Alpha virt. eigenvalues --    2.95496   2.95839   2.96149   2.96704   2.97026
 Alpha virt. eigenvalues --    2.97296   2.98106   2.98281   2.98686   2.98989
 Alpha virt. eigenvalues --    2.99056   2.99663   3.00286   3.01039   3.01216
 Alpha virt. eigenvalues --    3.01457   3.02153   3.02671   3.03450   3.03556
 Alpha virt. eigenvalues --    3.03813   3.03953   3.04644   3.04836   3.05053
 Alpha virt. eigenvalues --    3.05329   3.05634   3.05891   3.06363   3.06586
 Alpha virt. eigenvalues --    3.07154   3.07236   3.07488   3.07709   3.08242
 Alpha virt. eigenvalues --    3.09199   3.10073   3.10695   3.11139   3.11336
 Alpha virt. eigenvalues --    3.11437   3.12202   3.12486   3.12922   3.13693
 Alpha virt. eigenvalues --    3.15161   3.15409   3.16421   3.16454   3.17174
 Alpha virt. eigenvalues --    3.17545   3.17815   3.18112   3.18250   3.18439
 Alpha virt. eigenvalues --    3.18878   3.19163   3.19927   3.20365   3.20829
 Alpha virt. eigenvalues --    3.21242   3.21410   3.21976   3.23609   3.24315
 Alpha virt. eigenvalues --    3.24704   3.25177   3.25829   3.26511   3.26733
 Alpha virt. eigenvalues --    3.27256   3.28066   3.29839   3.31332   3.31553
 Alpha virt. eigenvalues --    3.32179   3.32302   3.32967   3.33347   3.33963
 Alpha virt. eigenvalues --    3.34425   3.34808   3.35159   3.35604   3.35746
 Alpha virt. eigenvalues --    3.36277   3.37392   3.37674   3.38069   3.38201
 Alpha virt. eigenvalues --    3.38707   3.39815   3.39949   3.40436   3.41657
 Alpha virt. eigenvalues --    3.43394   3.44363   3.45743   3.45938   3.46026
 Alpha virt. eigenvalues --    3.47677   3.47766   3.48907   3.49319   3.49735
 Alpha virt. eigenvalues --    3.50269   3.50655   3.50962   3.51213   3.51851
 Alpha virt. eigenvalues --    3.52693   3.53067   3.53337   3.54269   3.55690
 Alpha virt. eigenvalues --    3.56190   3.56411   3.57347   3.58390   3.59142
 Alpha virt. eigenvalues --    3.59974   3.61698   3.61844   3.62364   3.63948
 Alpha virt. eigenvalues --    3.64537   3.65633   3.65813   3.66981   3.67580
 Alpha virt. eigenvalues --    3.67653   3.68266   3.68815   3.68873   3.69525
 Alpha virt. eigenvalues --    3.69670   3.70589   3.71561   3.71880   3.72999
 Alpha virt. eigenvalues --    3.73190   3.73521   3.73948   3.75857   3.75939
 Alpha virt. eigenvalues --    3.77520   3.78436   3.80805   3.81520   3.86210
 Alpha virt. eigenvalues --    3.87597   3.88625   3.88872   3.88888   3.89818
 Alpha virt. eigenvalues --    3.89871   3.90104   3.91318   3.91759   3.92921
 Alpha virt. eigenvalues --    3.93004   3.93699   3.93945   3.94392   3.94898
 Alpha virt. eigenvalues --    3.95256   3.95328   3.96042   3.97316   3.98315
 Alpha virt. eigenvalues --    4.01276   4.02014   4.02393   4.02705   4.07834
 Alpha virt. eigenvalues --    4.09422   4.11867   4.12681   4.13055   4.13190
 Alpha virt. eigenvalues --    4.13772   4.14407   4.16828   4.17498   4.19230
 Alpha virt. eigenvalues --    4.20751   4.21296   4.22005   4.22450   4.24492
 Alpha virt. eigenvalues --    4.25371   4.25391   4.26049   4.26701   4.27224
 Alpha virt. eigenvalues --    4.27426   4.27856   4.29259   4.29375   4.29643
 Alpha virt. eigenvalues --    4.31195   4.32466   4.32677   4.32950   4.33949
 Alpha virt. eigenvalues --    4.34537   4.35108   4.35654   4.39087   4.42990
 Alpha virt. eigenvalues --    4.45404   4.55212   4.57721   4.62387   4.62614
 Alpha virt. eigenvalues --    4.68955   4.70904   4.76381   4.79268   4.87233
 Alpha virt. eigenvalues --    4.89598   4.96145   4.97191   4.98016   4.98169
 Alpha virt. eigenvalues --    4.98472   4.99937   5.01504   5.01639   5.09543
 Alpha virt. eigenvalues --    5.09623   5.10486   5.13290   5.23088   5.24814
 Alpha virt. eigenvalues --    5.27637   5.31299   5.46127   5.47005   5.47904
 Alpha virt. eigenvalues --    5.49021   5.52083   5.75947   5.92327   5.96907
 Alpha virt. eigenvalues --    5.97748   5.98761   6.00852   8.01406   8.02605
 Alpha virt. eigenvalues --    8.06060  17.52565  17.57614  17.60366  17.69408
 Alpha virt. eigenvalues --   17.71738  17.82887  17.90266  17.92037  17.95733
 Alpha virt. eigenvalues --   23.79751  23.85519  23.88114  23.89024  23.93950
 Alpha virt. eigenvalues --   24.01595  24.03258  24.04178  24.06650  24.12014
 Alpha virt. eigenvalues --   24.17198  24.17963  24.22647  24.25621  24.26695
 Alpha virt. eigenvalues --   24.27041  24.27359  24.27611  24.27673  24.28752
 Alpha virt. eigenvalues --   24.28936  24.29261  24.29405  24.32006  24.32112
 Alpha virt. eigenvalues --   24.32509  24.33268  24.33457  24.33832  24.34192
 Alpha virt. eigenvalues --   24.34503  24.34920  24.35065  24.35160  24.39552
 Alpha virt. eigenvalues --   24.41824  24.42978  24.43366  24.43665  24.44249
 Alpha virt. eigenvalues --   24.46024  24.46487  24.47399  24.47951  24.50069
 Alpha virt. eigenvalues --   24.51133  24.51628  24.52900  24.53078  24.53648
 Alpha virt. eigenvalues --   24.53932  24.54148  24.54275  24.54931  24.57563
 Alpha virt. eigenvalues --   24.58543  24.58706  24.60025  24.60467  24.60871
 Alpha virt. eigenvalues --   24.83280  35.98437  36.11419  36.17178  36.31960
 Alpha virt. eigenvalues --   50.46443  50.53048  50.53504  50.54649  50.55724
 Alpha virt. eigenvalues --   50.63132 190.10532 190.11526 190.15235
          Condensed to atoms (all electrons):
 Mulliken charges:
               1
     1  C   -0.309433
     2  C    0.030610
     3  C   -0.193555
     4  C   -0.189560
     5  S    0.307451
     6  C   -0.273194
     7  C    0.020537
     8  C    0.034104
     9  H    0.134990
    10  C    0.092974
    11  C   -0.106949
    12  C   -0.083657
    13  C    0.012684
    14  C    0.129850
    15  N   -0.521493
    16  S    0.577830
    17  N   -0.561798
    18  C    0.160259
    19  C   -0.027757
    20  C   -0.036054
    21  C   -0.114821
    22  C    0.184144
    23  C   -0.112631
    24  C   -0.077952
    25  H    0.100878
    26  H    0.123291
    27  N   -0.574166
    28  C    0.120569
    29  C   -0.086280
    30  C   -0.053320
    31  C   -0.097328
    32  C   -0.082185
    33  C   -0.083746
    34  H    0.116008
    35  H    0.102136
    36  C   -0.027159
    37  C   -0.066574
    38  C   -0.097443
    39  C    0.217324
    40  C   -0.106766
    41  C    0.140516
    42  O   -0.440001
    43  C   -0.085812
    44  H    0.095520
    45  H    0.115496
    46  H    0.116670
    47  H    0.111866
    48  O   -0.400158
    49  C   -0.111696
    50  H    0.130789
    51  H    0.112906
    52  H    0.108601
    53  H    0.109628
    54  H    0.104953
    55  H    0.116734
    56  H    0.116166
    57  C    0.115435
    58  C   -0.090273
    59  C   -0.033006
    60  C   -0.017773
    61  C   -0.078770
    62  C   -0.085025
    63  H    0.113354
    64  H    0.103065
    65  C   -0.104804
    66  C    0.226274
    67  C   -0.185860
    68  C    0.209551
    69  C   -0.103347
    70  C   -0.068276
    71  H    0.102905
    72  H    0.107332
    73  O   -0.400189
    74  C   -0.112487
    75  H    0.107877
    76  H    0.132315
    77  H    0.107924
    78  H    0.124134
    79  O   -0.413058
    80  C   -0.112190
    81  H    0.107143
    82  H    0.110128
    83  H    0.132959
    84  H    0.100519
    85  H    0.110049
    86  H    0.124198
    87  H    0.115158
    88  H    0.107869
    89  H    0.110614
    90  S    0.323181
    91  C   -0.293296
    92  C    0.015384
    93  H    0.103143
    94  C    0.038760
    95  C   -0.055221
    96  C   -0.056839
    97  C   -0.103119
    98  C   -0.045389
    99  C   -0.108660
   100  H    0.116499
   101  H    0.137493
   102  C    0.076878
   103  C   -0.222048
   104  C    0.021786
   105  N   -0.275144
   106  C    0.545025
   107  O   -0.367137
   108  O   -0.342159
   109  H    0.266566
   110  H    0.145802
   111  H    0.108829
   112  H    0.103075
   113  C   -0.203762
   114  H    0.122950
   115  H    0.106658
   116  H    0.113954
   117  C   -0.203646
   118  H    0.122741
   119  H    0.113926
   120  H    0.106027
 Sum of Mulliken charges =  -0.00000
 Mulliken charges with hydrogens summed into heavy atoms:
               1
     1  C   -0.309433
     2  C    0.030610
     3  C   -0.193555
     4  C   -0.189560
     5  S    0.307451
     6  C   -0.273194
     7  C    0.155527
     8  C    0.034104
    10  C    0.092974
    11  C    0.003665
    12  C    0.024212
    13  C    0.012684
    14  C    0.129850
    15  N   -0.521493
    16  S    0.577830
    17  N   -0.561798
    18  C    0.160259
    19  C   -0.027757
    20  C    0.079105
    21  C    0.009377
    22  C    0.184144
    23  C    0.010660
    24  C    0.022926
    27  N   -0.574166
    28  C    0.120569
    29  C    0.029887
    30  C    0.063414
    31  C   -0.097328
    32  C    0.019951
    33  C    0.032263
    36  C   -0.027159
    37  C    0.038379
    38  C    0.012184
    39  C    0.217324
    40  C    0.005100
    41  C    0.140516
    42  O   -0.440001
    43  C    0.241874
    48  O   -0.400158
    49  C    0.240600
    57  C    0.115435
    58  C    0.019776
    59  C    0.067513
    60  C   -0.017773
    61  C    0.024295
    62  C    0.028329
    65  C   -0.104804
    66  C    0.226274
    67  C   -0.061726
    68  C    0.209551
    69  C    0.003986
    70  C    0.034629
    73  O   -0.400189
    74  C    0.235627
    79  O   -0.413058
    80  C    0.238040
    90  S    0.323181
    91  C   -0.293296
    92  C    0.118527
    94  C    0.038760
    95  C    0.047853
    96  C    0.051990
    97  C   -0.103119
    98  C    0.092104
    99  C    0.007839
   102  C    0.222680
   103  C   -0.222048
   104  C    0.021786
   105  N   -0.275144
   106  C    0.545025
   107  O   -0.367137
   108  O   -0.075593
   113  C    0.139801
   117  C    0.139047
 Electronic spatial extent (au):  <R**2>=         204331.6557
 Charge=             -0.0000 electrons
 Dipole moment (field-independent basis, Debye):
    X=            -12.1930    Y=             -3.3784    Z=              6.0901  Tot=             14.0418
 Quadrupole moment (field-independent basis, Debye-Ang):
   XX=           -552.1583   YY=           -411.6898   ZZ=           -446.5096
   XY=             -2.8947   XZ=             28.7941   YZ=            -15.2341
 Traceless Quadrupole moment (field-independent basis, Debye-Ang):
   XX=            -82.0390   YY=             58.4294   ZZ=             23.6096
   XY=             -2.8947   XZ=             28.7941   YZ=            -15.2341
 Octapole moment (field-independent basis, Debye-Ang**2):
  XXX=          -5862.4889  YYY=           -157.4743  ZZZ=             98.5606  XYY=           -681.3561
  XXY=           -505.0574  XXZ=           1097.3558  XZZ=            -73.6176  YZZ=            -53.9978
  YYZ=             80.0559  XYZ=            107.8379
 Hexadecapole moment (field-independent basis, Debye-Ang**3):
 XXXX=        -313689.4444 YYYY=         -31927.6273 ZZZZ=          -8988.1993 XXXY=          -4525.2774
 XXXZ=           9266.2738 YYYX=           1422.7230 YYYZ=           -695.5857 ZZZX=            864.6455
 ZZZY=           -101.1626 XXYY=         -36951.6560 XXZZ=         -42133.8440 YYZZ=          -7585.1174
 XXYZ=          -1229.6926 YYXZ=           -489.9087 ZZXY=           -248.3079
 N-N= 1.002970077633D+04 E-N=-2.993141328730D+04  KE= 4.202398592111D+03
 1\1\GINC-CN113\SP\RBHandHLYP TD-FC\6-311G(d,p)\C61H46N4O6S3\R2532\13-J
 ul-2021\0\\#N TD(NStates=10) BHandHLYP/6-311G(d,p)\\Name\\0,1\C,0,-7.5
 46561,1.28031,2.683097\C,0,-8.592842,0.800254,1.678459\C,0,-7.982348,0
 .250768,0.559527\C,0,-6.560027,0.312166,0.721275\S,0,-5.139569,-0.1265
 7,-0.154442\C,0,-4.110677,0.497597,1.154165\C,0,-4.886064,1.009111,2.1
 84047\C,0,-6.267212,0.903068,1.938473\H,0,-4.434723,1.436566,3.066072\
 C,0,-2.66474,0.421969,1.036834\C,0,-2.033004,-0.180668,-0.038723\C,0,-
 0.630861,-0.259925,-0.188264\C,0,0.271476,0.24855,0.727084\C,0,-0.3253
 05,0.886039,1.870252\N,0,0.341718,1.432283,2.889414\S,0,-0.764611,2.00
 9353,3.945696\N,0,-2.137532,1.584801,3.156203\C,0,-1.773595,0.971653,2
 .029089\C,0,1.727905,0.129793,0.534743\C,0,2.6277,1.12709,0.949407\C,0
 ,3.989468,1.01524,0.716343\C,0,4.520458,-0.105162,0.056672\C,0,3.63087
 6,-1.111584,-0.353867\C,0,2.271351,-0.992571,-0.11446\H,0,1.61859,-1.7
 99849,-0.426\H,0,4.012512,-1.990779,-0.857038\N,0,5.905965,-0.218076,-
 0.183178\C,0,6.541714,-1.490986,-0.162595\C,0,7.452277,-1.849593,-1.16
 4607\C,0,8.080003,-3.08788,-1.142777\C,0,7.814461,-4.022365,-0.129081\
 C,0,6.902809,-3.649608,0.871239\C,0,6.281857,-2.406948,0.86377\H,0,5.5
 9547,-2.138317,1.657746\H,0,6.698462,-4.333679,1.687379\C,0,8.431479,-
 5.372355,-0.123591\C,0,7.65544,-6.504999,0.184186\C,0,8.175336,-7.7876
 62,0.179345\C,0,9.520917,-7.991698,-0.146516\C,0,10.322163,-6.890794,-
 0.449187\C,0,9.78101,-5.603663,-0.436548\O,0,10.63086,-4.567494,-0.772
 508\C,0,11.174607,-3.854858,0.341958\H,0,11.768846,-4.521873,0.977035\
 H,0,11.818644,-3.079567,-0.07252\H,0,10.385781,-3.390238,0.941552\H,0,
 11.366991,-6.989955,-0.708897\O,0,9.950727,-9.284025,-0.144623\C,0,11.
 303899,-9.547345,-0.489284\H,0,11.419341,-10.628514,-0.434744\H,0,11.5
 31966,-9.209206,-1.506079\H,0,11.997205,-9.07373,0.214791\H,0,7.557214
 ,-8.648199,0.402949\H,0,6.602998,-6.368378,0.405019\H,0,8.776499,-3.34
 4012,-1.929784\H,0,7.660802,-1.152742,-1.967442\C,0,6.68419,0.938764,-
 0.477466\C,0,7.924033,1.137885,0.141914\C,0,8.692136,2.255911,-0.15308
 2\C,0,8.25176,3.224345,-1.068286\C,0,7.002848,3.017724,-1.673254\C,0,6
 .234035,1.894297,-1.394612\H,0,5.276141,1.759105,-1.882366\H,0,6.62293
 5,3.753594,-2.37299\C,0,9.074355,4.404066,-1.438322\C,0,9.741533,5.204
 812,-0.488005\C,0,10.490422,6.32069,-0.879745\C,0,10.589114,6.656541,-
 2.233187\C,0,9.938791,5.878317,-3.191525\C,0,9.200749,4.778553,-2.7830
 35\H,0,8.714408,4.166883,-3.534234\H,0,10.032331,6.144342,-4.236502\O,
 0,11.299441,7.720324,-2.704903\C,0,11.985477,8.550716,-1.780708\H,0,12
 .745332,7.991399,-1.222891\H,0,12.473802,9.31926,-2.377619\H,0,11.2941
 91,9.027627,-1.076442\H,0,10.986088,6.922385,-0.134488\O,0,9.602716,4.
 840751,0.820595\C,0,10.183472,5.647349,1.833286\H,0,11.275635,5.680701
 ,1.748293\H,0,9.784755,6.667732,1.813423\H,0,9.912805,5.176009,2.77680
 7\H,0,9.646101,2.386068,0.339831\H,0,8.285881,0.405206,0.853395\H,0,4.
 654626,1.802552,1.047713\H,0,2.255914,1.998856,1.468874\H,0,-0.2525,-0
 .727024,-1.089395\H,0,-2.635999,-0.614377,-0.82843\S,0,-9.123789,-0.30
 5543,-0.605419\C,0,-10.469575,0.212829,0.424075\C,0,-9.994005,0.777274
 ,1.599899\H,0,-10.653402,1.174492,2.359953\C,0,-11.846087,0.026495,0.0
 02967\C,0,-12.911052,0.188287,0.91453\C,0,-14.2207,0.019765,0.513571\C
 ,0,-14.553611,-0.327482,-0.814183\C,0,-13.488229,-0.495374,-1.72485\C,
 0,-12.178791,-0.320031,-1.325168\H,0,-11.391855,-0.44104,-2.060468\H,0
 ,-13.683793,-0.758683,-2.755101\C,0,-15.951965,-0.484358,-1.128773\C,0
 ,-16.598111,-0.801101,-2.284978\C,0,-15.969472,-1.065192,-3.530449\N,0
 ,-15.544201,-1.294906,-4.583914\C,0,-18.103574,-0.878389,-2.242749\O,0
 ,-18.738018,-0.672509,-1.243038\O,0,-18.723307,-1.195286,-3.399137\H,0
 ,-18.087752,-1.332222,-4.115879\H,0,-16.637229,-0.323158,-0.300363\H,0
 ,-15.018492,0.148074,1.237166\H,0,-12.704703,0.430789,1.949174\C,0,-7.
 637268,2.804247,2.911604\H,0,-7.558605,3.347206,1.967676\H,0,-8.589316
 ,3.066421,3.381452\H,0,-6.831512,3.140233,3.569513\C,0,-7.660911,0.524
 229,4.024198\H,0,-7.602613,-0.555306,3.871714\H,0,-6.853024,0.819794,4
 .698782\H,0,-8.611489,0.752222,4.514437\\Version=ES64L-G16RevB.01\Stat
 e=1-A\HF=-4215.9414181\RMSD=7.212e-09\PG=C01 [X(C61H46N4O6S3)]\\@


 "MATHEMATICS IS THE ART OF GIVING THE SAME NAME
 TO DIFFERENT THINGS."
                    - H. POINCARE
 Job cpu time:       0 days  8 hours 12 minutes 48.7 seconds.
 Elapsed time:       0 days  8 hours 15 minutes 57.0 seconds.
 File lengths (MBytes):  RWF=  15980 Int=      0 D2E=      0 Chk=    995 Scr=      1
 Normal termination of Gaussian 16 at Tue Jul 13 21:16:42 2021.
