 Entering Gaussian System, Link 0=/usr/local/apps//g09/g09
 Input=mexc.com
 Output=mexc.out
 Initial command:
 /usr/local/apps//g09/l1.exe "/tmp/bnp.504684.sequoia/Gau-6153.inp" -scrdir="/tmp/bnp.504684.sequoia/"
 Entering Link 1 = /usr/local/apps//g09/l1.exe PID=      6154.
  
 Copyright (c) 1988,1990,1992,1993,1995,1998,2003,2009,2013,
            Gaussian, Inc.  All Rights Reserved.
  
 This is part of the Gaussian(R) 09 program.  It is based on
 the Gaussian(R) 03 system (copyright 2003, Gaussian, Inc.),
 the Gaussian(R) 98 system (copyright 1998, Gaussian, Inc.),
 the Gaussian(R) 94 system (copyright 1995, Gaussian, Inc.),
 the Gaussian 92(TM) system (copyright 1992, Gaussian, Inc.),
 the Gaussian 90(TM) system (copyright 1990, Gaussian, Inc.),
 the Gaussian 88(TM) system (copyright 1988, Gaussian, Inc.),
 the Gaussian 86(TM) system (copyright 1986, Carnegie Mellon
 University), and the Gaussian 82(TM) system (copyright 1983,
 Carnegie Mellon University). Gaussian is a federally registered
 trademark of Gaussian, Inc.
  
 This software contains proprietary and confidential information,
 including trade secrets, belonging to Gaussian, Inc.
  
 This software is provided under written license and may be
 used, copied, transmitted, or stored only in accord with that
 written license.
  
 The following legend is applicable only to US Government
 contracts under FAR:
  
                    RESTRICTED RIGHTS LEGEND
  
 Use, reproduction and disclosure by the US Government is
 subject to restrictions as set forth in subparagraphs (a)
 and (c) of the Commercial Computer Software - Restricted
 Rights clause in FAR 52.227-19.
  
 Gaussian, Inc.
 340 Quinnipiac St., Bldg. 40, Wallingford CT 06492
  
  
 ---------------------------------------------------------------
 Warning -- This program may not be used in any manner that
 competes with the business of Gaussian, Inc. or will provide
 assistance to any competitor of Gaussian, Inc.  The licensee
 of this program is prohibited from giving any competitor of
 Gaussian, Inc. access to this program.  By using this program,
 the user acknowledges that Gaussian, Inc. is engaged in the
 business of creating and licensing software in the field of
 computational chemistry and represents and warrants to the
 licensee that it is not a competitor of Gaussian, Inc. and that
 it will not use this program in any manner prohibited above.
 ---------------------------------------------------------------
  

 Cite this work as:
 Gaussian 09, Revision D.01,
 M. J. Frisch, G. W. Trucks, H. B. Schlegel, G. E. Scuseria, 
 M. A. Robb, J. R. Cheeseman, G. Scalmani, V. Barone, B. Mennucci, 
 G. A. Petersson, H. Nakatsuji, M. Caricato, X. Li, H. P. Hratchian, 
 A. F. Izmaylov, J. Bloino, G. Zheng, J. L. Sonnenberg, M. Hada, 
 M. Ehara, K. Toyota, R. Fukuda, J. Hasegawa, M. Ishida, T. Nakajima, 
 Y. Honda, O. Kitao, H. Nakai, T. Vreven, J. A. Montgomery, Jr., 
 J. E. Peralta, F. Ogliaro, M. Bearpark, J. J. Heyd, E. Brothers, 
 K. N. Kudin, V. N. Staroverov, T. Keith, R. Kobayashi, J. Normand, 
 K. Raghavachari, A. Rendell, J. C. Burant, S. S. Iyengar, J. Tomasi, 
 M. Cossi, N. Rega, J. M. Millam, M. Klene, J. E. Knox, J. B. Cross, 
 V. Bakken, C. Adamo, J. Jaramillo, R. Gomperts, R. E. Stratmann, 
 O. Yazyev, A. J. Austin, R. Cammi, C. Pomelli, J. W. Ochterski, 
 R. L. Martin, K. Morokuma, V. G. Zakrzewski, G. A. Voth, 
 P. Salvador, J. J. Dannenberg, S. Dapprich, A. D. Daniels, 
 O. Farkas, J. B. Foresman, J. V. Ortiz, J. Cioslowski, 
 and D. J. Fox, Gaussian, Inc., Wallingford CT, 2013.
 
 ******************************************
 Gaussian 09:  ES64L-G09RevD.01 24-Apr-2013
                16-Sep-2021 
 ******************************************
 %mem=8gb
 ---------------------------------------
 #N TD(NStates=10) bhandhlyp/6-311G(d,p)
 ---------------------------------------
 1/38=1/1;
 2/12=2,17=6,18=5,40=1/2;
 3/5=4,6=6,7=101,11=9,16=1,25=1,30=1,74=-3/1,2,8,3;
 4//1;
 5/5=2,38=5/2;
 8/6=1,10=2,108=10/1;
 9/41=10,42=1,70=2/14;
 6/7=2,8=2,9=2,10=2/1;
 99/5=1,9=1/99;
 ----
 Name
 ----
 Symbolic Z-matrix:
 Charge =  0 Multiplicity = 1
 6                    -0.01235  -2.98003  -0.40771 
 6                     1.18184  -2.04544  -0.2224 
 6                     0.7522   -0.74417   0.01821 
 6                    -0.67895  -0.71242   0.01896 
 16                   -1.95265   0.4361    0.23461 
 6                    -3.16699  -0.82263  -0.0242 
 6                    -4.59021  -0.50427   0.02373 
 6                    -5.07759   0.78562  -0.24998 
 6                    -6.43259   1.07238  -0.21459 
 6                    -7.36993   0.07578   0.10204 
 7                    -8.75079   0.361     0.13902 
 6                    -9.21415   1.62547   0.60434 
 6                    -10.21145   2.31508  -0.09662 
 1                    -10.62152   1.88363  -1.00162 
 6                    -10.67357   3.54236   0.36812 
 6                    -10.14021   4.10744   1.52502 
 6                    -9.14302   3.42607   2.22086 
 6                    -8.6871    2.19048   1.77293 
 1                    -7.92224   1.65803   2.32522 
 1                    -8.72584   3.85059   3.12718 
 1                    -10.49777   5.06654   1.8808 
 1                    -11.44616   4.06426  -0.18537 
 6                    -9.69748  -0.61033  -0.29679 
 6                    -9.49194  -1.32037  -1.4869 
 6                    -10.41922  -2.26866  -1.90651 
 6                    -11.57083  -2.51117  -1.15972 
 6                    -11.78298  -1.79823   0.01894 
 6                    -10.8526  -0.86017   0.45489 
 1                    -11.01624  -0.31451   1.37616 
 1                    -12.67264  -1.98015   0.61143 
 1                    -12.29496  -3.24518  -1.49316 
 1                    -10.24675  -2.80939  -2.83043 
 1                    -8.6057   -1.12446  -2.07824 
 6                    -6.89213  -1.21538   0.3838 
 6                    -5.53667  -1.49468   0.34425 
 1                    -5.20109  -2.49162   0.60484 
 1                    -7.59312  -1.99619   0.65067 
 1                    -6.77496   2.07245  -0.4483 
 1                    -4.38668   1.57273  -0.5311 
 6                    -2.56663  -2.05029  -0.2466 
 6                    -1.15979  -1.98928  -0.22078 
 1                    -3.14131  -2.94363  -0.45166 
 16                    2.06189   0.35653   0.22066 
 6                     3.23193  -0.9515   -0.03735 
 6                     2.57535  -2.16154  -0.25304 
 1                     3.1151   -3.07979  -0.44723 
 6                     4.64038  -0.71741   0.02324 
 16                    5.73333  -2.03408   0.34905 
 6                     7.18193  -1.01934   0.26228 
 6                     6.7836    0.29513   0.01641 
 6                     5.37104   0.46985  -0.13337 
 6                     5.02508   1.80127  -0.51772 
 6                     6.1197    2.59537  -0.66224 
 16                    7.64723   1.77551  -0.31511 
 6                     6.06901   4.01707  -1.05397 
 8                     5.04965   4.62232  -1.28589 
 8                     7.30361   4.55105  -1.12162 
 6                     7.37038   5.94274  -1.48322 
 1                     6.94443   6.09741  -2.47558 
 1                     6.82381   6.54839  -0.75923 
 1                     8.42818   6.19311  -1.47407 
 1                     4.02736   2.17206  -0.70061 
 6                     8.43262  -1.68148   0.37805 
 6                     9.67609  -1.20589   0.71315 
 6                     9.88815   0.08673   1.26191 
 7                     10.05322   1.12754   1.73877 
 6                     10.87948  -2.09716   0.71829 
 8                     11.84675  -1.90077   1.39787 
 8                     10.81648  -3.19271  -0.09447 
 1                     10.13273  -3.07114  -0.76297 
 1                     8.37965  -2.75469   0.20737 
 6                    -0.02792  -3.60117  -1.82105 
 1                    -0.00796  -2.82636  -2.5899 
 1                     0.83921  -4.25157  -1.96451 
 1                    -0.92874  -4.20399  -1.96397 
 6                    -0.04044  -4.08516   0.66982 
 1                    -0.02589  -3.65535   1.6733 
 1                    -0.94352  -4.69321   0.56946 
 1                     0.82449  -4.74597   0.56577 
 
 Stoichiometry    C41H28N2O4S4
 Framework group  C1[X(C41H28N2O4S4)]
 Deg. of freedom   231
 Full point group                 C1      NOp   1
 Largest Abelian subgroup         C1      NOp   1
 Largest concise Abelian subgroup C1      NOp   1
                         Standard orientation:                         
 ---------------------------------------------------------------------
 Center     Atomic      Atomic             Coordinates (Angstroms)
 Number     Number       Type             X           Y           Z
 ---------------------------------------------------------------------
      1          6           0       -0.012345   -2.980026   -0.407714
      2          6           0        1.181844   -2.045438   -0.222401
      3          6           0        0.752200   -0.744172    0.018210
      4          6           0       -0.678945   -0.712420    0.018957
      5         16           0       -1.952649    0.436098    0.234611
      6          6           0       -3.166989   -0.822632   -0.024199
      7          6           0       -4.590214   -0.504269    0.023730
      8          6           0       -5.077595    0.785619   -0.249982
      9          6           0       -6.432593    1.072378   -0.214590
     10          6           0       -7.369931    0.075781    0.102040
     11          7           0       -8.750787    0.360996    0.139017
     12          6           0       -9.214154    1.625471    0.604336
     13          6           0      -10.211451    2.315082   -0.096618
     14          1           0      -10.621524    1.883625   -1.001624
     15          6           0      -10.673568    3.542360    0.368124
     16          6           0      -10.140206    4.107439    1.525024
     17          6           0       -9.143025    3.426075    2.220855
     18          6           0       -8.687099    2.190479    1.772925
     19          1           0       -7.922238    1.658029    2.325222
     20          1           0       -8.725837    3.850586    3.127182
     21          1           0      -10.497770    5.066545    1.880804
     22          1           0      -11.446160    4.064263   -0.185371
     23          6           0       -9.697475   -0.610328   -0.296792
     24          6           0       -9.491944   -1.320371   -1.486903
     25          6           0      -10.419217   -2.268662   -1.906510
     26          6           0      -11.570826   -2.511165   -1.159718
     27          6           0      -11.782979   -1.798229    0.018937
     28          6           0      -10.852595   -0.860168    0.454890
     29          1           0      -11.016238   -0.314505    1.376158
     30          1           0      -12.672641   -1.980152    0.611433
     31          1           0      -12.294962   -3.245179   -1.493156
     32          1           0      -10.246749   -2.809387   -2.830429
     33          1           0       -8.605701   -1.124463   -2.078241
     34          6           0       -6.892132   -1.215381    0.383799
     35          6           0       -5.536667   -1.494682    0.344250
     36          1           0       -5.201094   -2.491617    0.604837
     37          1           0       -7.593124   -1.996191    0.650665
     38          1           0       -6.774959    2.072453   -0.448304
     39          1           0       -4.386677    1.572727   -0.531103
     40          6           0       -2.566632   -2.050285   -0.246603
     41          6           0       -1.159785   -1.989277   -0.220778
     42          1           0       -3.141310   -2.943633   -0.451656
     43         16           0        2.061887    0.356529    0.220661
     44          6           0        3.231933   -0.951498   -0.037351
     45          6           0        2.575347   -2.161542   -0.253040
     46          1           0        3.115099   -3.079791   -0.447226
     47          6           0        4.640379   -0.717411    0.023240
     48         16           0        5.733327   -2.034076    0.349049
     49          6           0        7.181931   -1.019341    0.262279
     50          6           0        6.783600    0.295128    0.016413
     51          6           0        5.371044    0.469850   -0.133365
     52          6           0        5.025084    1.801268   -0.517720
     53          6           0        6.119705    2.595367   -0.662240
     54         16           0        7.647231    1.775514   -0.315112
     55          6           0        6.069008    4.017068   -1.053967
     56          8           0        5.049654    4.622320   -1.285892
     57          8           0        7.303607    4.551046   -1.121623
     58          6           0        7.370376    5.942741   -1.483219
     59          1           0        6.944427    6.097414   -2.475575
     60          1           0        6.823812    6.548393   -0.759226
     61          1           0        8.428176    6.193112   -1.474066
     62          1           0        4.027359    2.172062   -0.700610
     63          6           0        8.432625   -1.681481    0.378047
     64          6           0        9.676085   -1.205887    0.713146
     65          6           0        9.888149    0.086727    1.261912
     66          7           0       10.053217    1.127542    1.738771
     67          6           0       10.879484   -2.097164    0.718285
     68          8           0       11.846749   -1.900768    1.397866
     69          8           0       10.816483   -3.192706   -0.094466
     70          1           0       10.132726   -3.071141   -0.762969
     71          1           0        8.379649   -2.754691    0.207370
     72          6           0       -0.027915   -3.601173   -1.821045
     73          1           0       -0.007959   -2.826361   -2.589895
     74          1           0        0.839207   -4.251575   -1.964513
     75          1           0       -0.928742   -4.203986   -1.963969
     76          6           0       -0.040437   -4.085156    0.669821
     77          1           0       -0.025893   -3.655350    1.673304
     78          1           0       -0.943515   -4.693214    0.569463
     79          1           0        0.824494   -4.745968    0.565774
 ---------------------------------------------------------------------
 Rotational constants (GHZ):      0.1106486      0.0127933      0.0117637
 Standard basis: 6-311G(d,p) (5D, 7F)
 There are  1169 symmetry adapted cartesian basis functions of A   symmetry.
 There are  1118 symmetry adapted basis functions of A   symmetry.
  1118 basis functions,  1912 primitive gaussians,  1169 cartesian basis functions
   192 alpha electrons      192 beta electrons
       nuclear repulsion energy      6387.6313192820 Hartrees.
 NAtoms=   79 NActive=   79 NUniq=   79 SFac= 1.00D+00 NAtFMM=   60 NAOKFM=T Big=T
 Integral buffers will be    131072 words long.
 Regular integral format.
 Two-electron integral symmetry is turned on.
 One-electron integrals computed using PRISM.
 NBasis=  1118 RedAO= T EigKep=  1.44D-04  NBF=  1118
 NBsUse=  1118 1.00D-06 EigRej= -1.00D+00 NBFU=  1118
 ExpMin= 7.71D-02 ExpMax= 9.34D+04 ExpMxC= 3.17D+03 IAcc=2 IRadAn=         4 AccDes= 0.00D+00
 Harris functional with IExCor=  402 and IRadAn=       4 diagonalized for initial guess.
 HarFok:  IExCor=  402 AccDes= 0.00D+00 IRadAn=         4 IDoV= 1 UseB2=F ITyADJ=14
 ICtDFT=  3500011 ScaDFX=  1.000000  1.000000  1.000000  1.000000
 FoFCou: FMM=F IPFlag=           0 FMFlag=      100000 FMFlg1=        2001
         NFxFlg=           0 DoJE=T BraDBF=F KetDBF=T FulRan=T
         wScrn=  0.000000 ICntrl=     500 IOpCl=  0 I1Cent=   200000004 NGrid=           0
         NMat0=    1 NMatS0=      1 NMatT0=    0 NMatD0=    1 NMtDS0=    0 NMtDT0=    0
 Petite list used in FoFCou.
 Requested convergence on RMS density matrix=1.00D-08 within 128 cycles.
 Requested convergence on MAX density matrix=1.00D-06.
 Requested convergence on             energy=1.00D-06.
 No special actions if energy rises.
 Integral accuracy reduced to 1.0D-05 until final iterations.
 Initial convergence to 1.0D-05 achieved.  Increase integral accuracy.
 SCF Done:  E(RBHandHLYP) =  -3581.62987857     A.U. after   16 cycles
            NFock= 16  Conv=0.96D-08     -V/T= 2.0028
 DoSCS=F DFT=T ScalE2(SS,OS)=  1.000000  1.000000
 ExpMin= 7.71D-02 ExpMax= 9.34D+04 ExpMxC= 3.17D+03 IAcc=3 IRadAn=         5 AccDes= 0.00D+00
 HarFok:  IExCor=  205 AccDes= 0.00D+00 IRadAn=         5 IDoV=-2 UseB2=F ITyADJ=14
 ICtDFT= 12500011 ScaDFX=  1.000000  1.000000  1.000000  1.000000
 Range of M.O.s used for correlation:    68  1118
 NBasis=  1118 NAE=   192 NBE=   192 NFC=    67 NFV=     0
 NROrb=   1051 NOA=   125 NOB=   125 NVA=   926 NVB=   926

 **** Warning!!: The largest alpha MO coefficient is  0.13144523D+02

 Would need an additional        586642800000 words for in-memory AO integral storage.
 Orbital symmetries:
       Occupied  (A) (A) (A) (A) (A) (A) (A) (A) (A) (A) (A) (A)
                 (A) (A) (A) (A) (A) (A) (A) (A) (A) (A) (A) (A)
                 (A) (A) (A) (A) (A) (A) (A) (A) (A) (A) (A) (A)
                 (A) (A) (A) (A) (A) (A) (A) (A) (A) (A) (A) (A)
                 (A) (A) (A) (A) (A) (A) (A) (A) (A) (A) (A) (A)
                 (A) (A) (A) (A) (A) (A) (A) (A) (A) (A) (A) (A)
                 (A) (A) (A) (A) (A) (A) (A) (A) (A) (A) (A) (A)
                 (A) (A) (A) (A) (A) (A) (A) (A) (A) (A) (A) (A)
                 (A) (A) (A) (A) (A) (A) (A) (A) (A) (A) (A) (A)
                 (A) (A) (A) (A) (A) (A) (A) (A) (A) (A) (A) (A)
                 (A) (A) (A) (A) (A) (A) (A) (A) (A) (A) (A) (A)
                 (A) (A) (A) (A) (A) (A) (A) (A) (A) (A) (A) (A)
                 (A) (A) (A) (A) (A) (A) (A) (A) (A) (A) (A) (A)
                 (A) (A) (A) (A) (A) (A) (A) (A) (A) (A) (A) (A)
                 (A) (A) (A) (A) (A) (A) (A) (A) (A) (A) (A) (A)
                 (A) (A) (A) (A) (A) (A) (A) (A) (A) (A) (A) (A)
       Virtual   (A) (A) (A) (A) (A) (A) (A) (A) (A) (A) (A) (A)
                 (A) (A) (A) (A) (A) (A) (A) (A) (A) (A) (A) (A)
                 (A) (A) (A) (A) (A) (A) (A) (A) (A) (A) (A) (A)
                 (A) (A) (A) (A) (A) (A) (A) (A) (A) (A) (A) (A)
                 (A) (A) (A) (A) (A) (A) (A) (A) (A) (A) (A) (A)
                 (A) (A) (A) (A) (A) (A) (A) (A) (A) (A) (A) (A)
                 (A) (A) (A) (A) (A) (A) (A) (A) (A) (A) (A) (A)
                 (A) (A) (A) (A) (A) (A) (A) (A) (A) (A) (A) (A)
                 (A) (A) (A) (A) (A) (A) (A) (A) (A) (A) (A) (A)
                 (A) (A) (A) (A) (A) (A) (A) (A) (A) (A) (A) (A)
                 (A) (A) (A) (A) (A) (A) (A) (A) (A) (A) (A) (A)
                 (A) (A) (A) (A) (A) (A) (A) (A) (A) (A) (A) (A)
                 (A) (A) (A) (A) (A) (A) (A) (A) (A) (A) (A) (A)
                 (A) (A) (A) (A) (A) (A) (A) (A) (A) (A) (A) (A)
                 (A) (A) (A) (A) (A) (A) (A) (A) (A) (A) (A) (A)
                 (A) (A) (A) (A) (A) (A) (A) (A) (A) (A) (A) (A)
                 (A) (A) (A) (A) (A) (A) (A) (A) (A) (A) (A) (A)
                 (A) (A) (A) (A) (A) (A) (A) (A) (A) (A) (A) (A)
                 (A) (A) (A) (A) (A) (A) (A) (A) (A) (A) (A) (A)
                 (A) (A) (A) (A) (A) (A) (A) (A) (A) (A) (A) (A)
                 (A) (A) (A) (A) (A) (A) (A) (A) (A) (A) (A) (A)
                 (A) (A) (A) (A) (A) (A) (A) (A) (A) (A) (A) (A)
                 (A) (A) (A) (A) (A) (A) (A) (A) (A) (A) (A) (A)
                 (A) (A) (A) (A) (A) (A) (A) (A) (A) (A) (A) (A)
                 (A) (A) (A) (A) (A) (A) (A) (A) (A) (A) (A) (A)
                 (A) (A) (A) (A) (A) (A) (A) (A) (A) (A) (A) (A)
                 (A) (A) (A) (A) (A) (A) (A) (A) (A) (A) (A) (A)
                 (A) (A) (A) (A) (A) (A) (A) (A) (A) (A) (A) (A)
                 (A) (A) (A) (A) (A) (A) (A) (A) (A) (A) (A) (A)
                 (A) (A) (A) (A) (A) (A) (A) (A) (A) (A) (A) (A)
                 (A) (A) (A) (A) (A) (A) (A) (A) (A) (A) (A) (A)
                 (A) (A) (A) (A) (A) (A) (A) (A) (A) (A) (A) (A)
                 (A) (A) (A) (A) (A) (A) (A) (A) (A) (A) (A) (A)
                 (A) (A) (A) (A) (A) (A) (A) (A) (A) (A) (A) (A)
                 (A) (A) (A) (A) (A) (A) (A) (A) (A) (A) (A) (A)
                 (A) (A) (A) (A) (A) (A) (A) (A) (A) (A) (A) (A)
                 (A) (A) (A) (A) (A) (A) (A) (A) (A) (A) (A) (A)
                 (A) (A) (A) (A) (A) (A) (A) (A) (A) (A) (A) (A)
                 (A) (A) (A) (A) (A) (A) (A) (A) (A) (A) (A) (A)
                 (A) (A) (A) (A) (A) (A) (A) (A) (A) (A) (A) (A)
                 (A) (A) (A) (A) (A) (A) (A) (A) (A) (A) (A) (A)
                 (A) (A) (A) (A) (A) (A) (A) (A) (A) (A) (A) (A)
                 (A) (A) (A) (A) (A) (A) (A) (A) (A) (A) (A) (A)
                 (A) (A) (A) (A) (A) (A) (A) (A) (A) (A) (A) (A)
                 (A) (A) (A) (A) (A) (A) (A) (A) (A) (A) (A) (A)
                 (A) (A) (A) (A) (A) (A) (A) (A) (A) (A) (A) (A)
                 (A) (A) (A) (A) (A) (A) (A) (A) (A) (A) (A) (A)
                 (A) (A) (A) (A) (A) (A) (A) (A) (A) (A) (A) (A)
                 (A) (A) (A) (A) (A) (A) (A) (A) (A) (A) (A) (A)
                 (A) (A) (A) (A) (A) (A) (A) (A) (A) (A) (A) (A)
                 (A) (A) (A) (A) (A) (A) (A) (A) (A) (A) (A) (A)
                 (A) (A) (A) (A) (A) (A) (A) (A) (A) (A) (A) (A)
                 (A) (A) (A) (A) (A) (A) (A) (A) (A) (A) (A) (A)
                 (A) (A) (A) (A) (A) (A) (A) (A) (A) (A) (A) (A)
                 (A) (A) (A) (A) (A) (A) (A) (A) (A) (A) (A) (A)
                 (A) (A) (A) (A) (A) (A) (A) (A) (A) (A) (A) (A)
                 (A) (A) (A) (A) (A) (A) (A) (A) (A) (A) (A) (A)
                 (A) (A) (A) (A) (A) (A) (A) (A) (A) (A) (A) (A)
                 (A) (A) (A) (A) (A) (A) (A) (A) (A) (A) (A) (A)
                 (A) (A) (A) (A) (A) (A) (A) (A) (A) (A) (A) (A)
                 (A) (A) (A) (A) (A) (A) (A) (A) (A) (A) (A) (A)
                 (A) (A) (A) (A) (A) (A) (A) (A) (A) (A) (A) (A)
                 (A) (A) (A) (A) (A) (A) (A) (A) (A) (A) (A) (A)
                 (A) (A) (A) (A) (A) (A) (A) (A) (A) (A) (A) (A)
                 (A) (A) (A) (A) (A) (A) (A) (A) (A) (A) (A) (A)
                 (A) (A) (A) (A) (A) (A) (A) (A) (A) (A) (A) (A)
                 (A) (A) (A) (A) (A) (A) (A) (A) (A) (A) (A) (A)
                 (A) (A) (A) (A) (A) (A) (A) (A) (A) (A) (A) (A)
                 (A) (A) (A) (A) (A) (A) (A) (A) (A) (A) (A) (A)
                 (A) (A) (A) (A) (A) (A) (A) (A) (A) (A) (A) (A)
                 (A) (A) (A) (A) (A) (A) (A) (A) (A) (A) (A) (A)
                 (A) (A) (A) (A) (A) (A) (A) (A) (A) (A) (A) (A)
                 (A) (A) (A) (A) (A) (A) (A) (A) (A) (A) (A) (A)
                 (A) (A) (A) (A) (A) (A) (A) (A) (A) (A) (A) (A)
                 (A) (A) (A) (A) (A) (A) (A) (A) (A) (A) (A) (A)
                 (A) (A) (A) (A) (A) (A) (A) (A) (A) (A) (A) (A)
                 (A) (A) (A) (A) (A) (A) (A) (A) (A) (A) (A) (A)
                 (A) (A)
    40 initial guesses have been made.
 Convergence on wavefunction:    0.001000000000000
 Iteration     1 Dimension    40 NMult     0 NNew     40
 CISAX will form    40 AO SS matrices at one time.
 New state      4 was old state      5
 New state      5 was old state      4
 New state      7 was old state     12
 New state      8 was old state     10
 New state      9 was old state     15
 New state     10 was old state     11
 Iteration     2 Dimension    60 NMult    40 NNew     20
 New state      6 was old state      8
 New state      8 was old state      6
 Iteration     3 Dimension    80 NMult    60 NNew     20
 Iteration     4 Dimension   100 NMult    80 NNew     20
 Iteration     5 Dimension   120 NMult   100 NNew     20
 Iteration     6 Dimension   134 NMult   120 NNew     14
 Iteration     7 Dimension   142 NMult   134 NNew      8
 Iteration     8 Dimension   146 NMult   142 NNew      4
 Iteration     9 Dimension   150 NMult   146 NNew      4
 ***********************************************************************
 Excited states from <AA,BB:AA,BB> singles matrix:
 ***********************************************************************
 
 Ground to excited state transition densities written to RWF  633
 Ground to excited state transition electric dipole moments (Au):
       state          X           Y           Z        Dip. S.      Osc.
         1        -5.7128     -0.1993     -0.2026     32.7165      1.8678
         2        -0.3557      0.1569      0.3036      0.2433      0.0193
         3         0.4677      0.5808     -0.4061      0.7209      0.0617
         4        -1.7687      1.0322     -0.2091      4.2375      0.3904
         5        -0.0518     -0.2674      0.0954      0.0833      0.0078
         6         0.1353     -1.1330      0.3600      1.4316      0.1491
         7         0.4088      0.0284     -0.3699      0.3048      0.0323
         8        -0.8933      0.3737     -0.1508      0.9604      0.1023
         9        -0.2727     -0.5157      0.2501      0.4028      0.0449
        10         0.4219     -0.2385      0.0387      0.2364      0.0265
 Ground to excited state transition velocity dipole moments (Au):
       state          X           Y           Z        Dip. S.      Osc.
         1         0.4798      0.0188      0.0192      0.2309      1.7976
         2         0.0413     -0.0202     -0.0377      0.0035      0.0198
         3        -0.0649     -0.0740      0.0534      0.0125      0.0652
         4         0.2407     -0.1465      0.0303      0.0803      0.3874
         5         0.0056      0.0369     -0.0140      0.0016      0.0076
         6        -0.0206      0.1683     -0.0529      0.0316      0.1347
         7        -0.0661     -0.0098      0.0741      0.0100      0.0418
         8         0.1445     -0.0602      0.0266      0.0252      0.1052
         9         0.0472      0.0818     -0.0419      0.0107      0.0425
        10        -0.0714      0.0353     -0.0123      0.0065      0.0257
 Ground to excited state transition magnetic dipole moments (Au):
       state          X           Y           Z
         1        -0.0188     -0.3345      1.3143
         2         0.1037      0.4023      0.6408
         3        -0.1355     -0.5335     -1.1228
         4        -0.0462     -0.4344      0.0187
         5         0.0096      0.2536      0.4703
         6         0.1125      0.5638      1.6337
         7         0.0729      1.5610     -0.8048
         8         0.0853      0.2920      0.0458
         9         0.2121      0.6745      0.3590
        10        -0.0132      0.1828     -0.2165
 Ground to excited state transition velocity quadrupole moments (Au):
       state          XX          YY          ZZ          XY          XZ          YZ
         1         2.8871      0.0644      0.0139     -0.1678      0.4402     -0.1676
         2        -7.3742     -0.0229     -0.0923      0.7601     -0.5800     -0.0563
         3         5.1505     -0.4726      0.0583     -1.5937      0.8462      0.1767
         4        -3.3227     -0.5886     -0.0575     -0.9216      0.6674      0.0714
         5         0.5941      0.0484      0.0126      0.0220     -0.2894      0.0579
         6        -0.4712      0.5940     -0.0242      2.1725     -0.7276     -0.1896
         7         1.6630      0.0703      0.0749     -0.0128     -1.1789      0.1345
         8        -3.7041     -0.2069     -0.0855      0.1588     -0.1226     -0.1936
         9        -4.1801      0.3947     -0.1045      1.3906     -0.9889     -0.2669
        10        -0.2492      0.1803      0.0336      0.2109     -0.1686      0.0567
 <0|del|b> * <b|rxdel|0> + <0|del|b> * <b|delr+rdel|0>
 Rotatory Strengths (R) in cgs (10**-40 erg-esu-cm/Gauss)
       state          XX          YY          ZZ    R(velocity)    E-M Angle
         1        30.7137   -251.9858    302.8775     27.2018       89.13
         2      -215.8736     19.1678     30.2649    -55.4803      128.11
         3      -117.8948     61.8615     -7.9637    -21.3323       94.76
         4       342.9342     88.3758   -159.7420     90.5227       64.64
         5        33.2399    -14.8267     -4.0124      4.8003       82.30
         6        36.2084     68.1220    -76.4827      9.2825       88.85
         7      -194.7224   -161.1994      0.7256   -118.3988      117.06
         8       -43.1662    -41.2698     66.6634     -5.9242       94.72
         9       132.6188     85.9350     -6.5847     70.6564       52.27
        10        26.2320      4.5499     11.5429     14.1082       63.87
 1/2[<0|r|b>*<b|rxdel|0> + (<0|rxdel|b>*<b|r|0>)*]
 Rotatory Strengths (R) in cgs (10**-40 erg-esu-cm/Gauss)
       state          XX          YY          ZZ     R(length)
         1       -76.0865    -47.1441    188.2860     21.6851
         2        26.0725    -44.6522   -137.5852    -52.0549
         3        44.8072    219.0944   -322.4110    -19.5031
         4       -57.7799    317.0940      2.7656     87.3599
         5         0.3510     47.9618    -31.7313      5.5272
         6       -10.7651    451.7301   -415.8551      8.3700
         7       -21.0759    -31.3133   -210.4900    -87.6264
         8        53.9153    -77.1606      4.8869     -6.1195
         9        40.8977    245.9527    -63.4945     74.4520
        10         3.9427     30.8341      5.9302     13.5690
  1/2[<0|del|b>*<b|r|0> + (<0|r|b>*<b|del|0>)*] (Au)
       state          X           Y           Z        Dip. S.   Osc.(frdel)
         1        -2.7409     -0.0037     -0.0039      2.7485      1.8323
         2        -0.0147     -0.0032     -0.0115      0.0293      0.0195
         3        -0.0304     -0.0430     -0.0217      0.0950      0.0633
         4        -0.4257     -0.1512     -0.0063      0.5832      0.3888
         5        -0.0003     -0.0099     -0.0013      0.0115      0.0077
         6        -0.0028     -0.1907     -0.0190      0.2126      0.1417
         7        -0.0270     -0.0003     -0.0274      0.0547      0.0365
         8        -0.1291     -0.0225     -0.0040      0.1556      0.1037
         9        -0.0129     -0.0422     -0.0105      0.0655      0.0437
        10        -0.0301     -0.0084     -0.0005      0.0390      0.0260

 Excitation energies and oscillator strengths:
 
 Excited State   1:      Singlet-A      2.3302 eV  532.07 nm  f=1.8678  <S**2>=0.000
     191 -> 193       -0.22511
     192 -> 193        0.64833
 This state for optimization and/or second-order correction.
 Total Energy, E(TD-HF/TD-KS) =  -3581.54424480    
 Copying the excited state density for this state as the 1-particle RhoCI density.
 
 Excited State   2:      Singlet-A      3.2393 eV  382.75 nm  f=0.0193  <S**2>=0.000
     190 -> 193        0.28853
     191 -> 193        0.58751
     192 -> 193        0.17663
     192 -> 194       -0.12251
 
 Excited State   3:      Singlet-A      3.4911 eV  355.15 nm  f=0.0617  <S**2>=0.000
     190 -> 195       -0.10957
     191 -> 193        0.10884
     191 -> 194       -0.27929
     192 -> 193        0.12891
     192 -> 194        0.58106
     192 -> 195       -0.13529
 
 Excited State   4:      Singlet-A      3.7604 eV  329.71 nm  f=0.3904  <S**2>=0.000
     190 -> 194       -0.13338
     191 -> 194       -0.20703
     191 -> 197       -0.10273
     192 -> 195        0.61085
 
 Excited State   5:      Singlet-A      3.8143 eV  325.05 nm  f=0.0078  <S**2>=0.000
     186 -> 193       -0.13142
     187 -> 193        0.11835
     190 -> 193        0.58333
     191 -> 193       -0.25521
 
 Excited State   6:      Singlet-A      4.2511 eV  291.65 nm  f=0.1491  <S**2>=0.000
     186 -> 193        0.12510
     187 -> 193        0.64875
     192 -> 194       -0.11058
 
 Excited State   7:      Singlet-A      4.3225 eV  286.84 nm  f=0.0323  <S**2>=0.000
     191 -> 195       -0.11252
     191 -> 196        0.33647
     192 -> 196        0.54191
     192 -> 201        0.10133
 
 Excited State   8:      Singlet-A      4.3476 eV  285.18 nm  f=0.1023  <S**2>=0.000
     191 -> 194       -0.34512
     191 -> 195        0.37246
     192 -> 194       -0.12649
     192 -> 197       -0.34235
 
 Excited State   9:      Singlet-A      4.5495 eV  272.52 nm  f=0.0449  <S**2>=0.000
     181 -> 193       -0.16105
     190 -> 194        0.27718
     191 -> 194        0.33226
     191 -> 195        0.17840
     192 -> 194        0.27562
     192 -> 195        0.14217
     192 -> 197       -0.29349
 
 Excited State  10:      Singlet-A      4.5768 eV  270.90 nm  f=0.0265  <S**2>=0.000
     181 -> 193       -0.16699
     182 -> 193       -0.30067
     184 -> 193       -0.18873
     185 -> 193       -0.22880
     186 -> 193        0.16772
     190 -> 194       -0.12434
     191 -> 197        0.15898
     191 -> 199       -0.17183
     192 -> 199        0.30765
 SavETr:  write IOETrn=   770 NScale= 10 NData=  16 NLR=1 NState=   10 LETran=     190.

 **********************************************************************

            Population analysis using the SCF density.

 **********************************************************************

 Orbital symmetries:
       Occupied  (A) (A) (A) (A) (A) (A) (A) (A) (A) (A) (A) (A)
                 (A) (A) (A) (A) (A) (A) (A) (A) (A) (A) (A) (A)
                 (A) (A) (A) (A) (A) (A) (A) (A) (A) (A) (A) (A)
                 (A) (A) (A) (A) (A) (A) (A) (A) (A) (A) (A) (A)
                 (A) (A) (A) (A) (A) (A) (A) (A) (A) (A) (A) (A)
                 (A) (A) (A) (A) (A) (A) (A) (A) (A) (A) (A) (A)
                 (A) (A) (A) (A) (A) (A) (A) (A) (A) (A) (A) (A)
                 (A) (A) (A) (A) (A) (A) (A) (A) (A) (A) (A) (A)
                 (A) (A) (A) (A) (A) (A) (A) (A) (A) (A) (A) (A)
                 (A) (A) (A) (A) (A) (A) (A) (A) (A) (A) (A) (A)
                 (A) (A) (A) (A) (A) (A) (A) (A) (A) (A) (A) (A)
                 (A) (A) (A) (A) (A) (A) (A) (A) (A) (A) (A) (A)
                 (A) (A) (A) (A) (A) (A) (A) (A) (A) (A) (A) (A)
                 (A) (A) (A) (A) (A) (A) (A) (A) (A) (A) (A) (A)
                 (A) (A) (A) (A) (A) (A) (A) (A) (A) (A) (A) (A)
                 (A) (A) (A) (A) (A) (A) (A) (A) (A) (A) (A) (A)
       Virtual   (A) (A) (A) (A) (A) (A) (A) (A) (A) (A) (A) (A)
                 (A) (A) (A) (A) (A) (A) (A) (A) (A) (A) (A) (A)
                 (A) (A) (A) (A) (A) (A) (A) (A) (A) (A) (A) (A)
                 (A) (A) (A) (A) (A) (A) (A) (A) (A) (A) (A) (A)
                 (A) (A) (A) (A) (A) (A) (A) (A) (A) (A) (A) (A)
                 (A) (A) (A) (A) (A) (A) (A) (A) (A) (A) (A) (A)
                 (A) (A) (A) (A) (A) (A) (A) (A) (A) (A) (A) (A)
                 (A) (A) (A) (A) (A) (A) (A) (A) (A) (A) (A) (A)
                 (A) (A) (A) (A) (A) (A) (A) (A) (A) (A) (A) (A)
                 (A) (A) (A) (A) (A) (A) (A) (A) (A) (A) (A) (A)
                 (A) (A) (A) (A) (A) (A) (A) (A) (A) (A) (A) (A)
                 (A) (A) (A) (A) (A) (A) (A) (A) (A) (A) (A) (A)
                 (A) (A) (A) (A) (A) (A) (A) (A) (A) (A) (A) (A)
                 (A) (A) (A) (A) (A) (A) (A) (A) (A) (A) (A) (A)
                 (A) (A) (A) (A) (A) (A) (A) (A) (A) (A) (A) (A)
                 (A) (A) (A) (A) (A) (A) (A) (A) (A) (A) (A) (A)
                 (A) (A) (A) (A) (A) (A) (A) (A) (A) (A) (A) (A)
                 (A) (A) (A) (A) (A) (A) (A) (A) (A) (A) (A) (A)
                 (A) (A) (A) (A) (A) (A) (A) (A) (A) (A) (A) (A)
                 (A) (A) (A) (A) (A) (A) (A) (A) (A) (A) (A) (A)
                 (A) (A) (A) (A) (A) (A) (A) (A) (A) (A) (A) (A)
                 (A) (A) (A) (A) (A) (A) (A) (A) (A) (A) (A) (A)
                 (A) (A) (A) (A) (A) (A) (A) (A) (A) (A) (A) (A)
                 (A) (A) (A) (A) (A) (A) (A) (A) (A) (A) (A) (A)
                 (A) (A) (A) (A) (A) (A) (A) (A) (A) (A) (A) (A)
                 (A) (A) (A) (A) (A) (A) (A) (A) (A) (A) (A) (A)
                 (A) (A) (A) (A) (A) (A) (A) (A) (A) (A) (A) (A)
                 (A) (A) (A) (A) (A) (A) (A) (A) (A) (A) (A) (A)
                 (A) (A) (A) (A) (A) (A) (A) (A) (A) (A) (A) (A)
                 (A) (A) (A) (A) (A) (A) (A) (A) (A) (A) (A) (A)
                 (A) (A) (A) (A) (A) (A) (A) (A) (A) (A) (A) (A)
                 (A) (A) (A) (A) (A) (A) (A) (A) (A) (A) (A) (A)
                 (A) (A) (A) (A) (A) (A) (A) (A) (A) (A) (A) (A)
                 (A) (A) (A) (A) (A) (A) (A) (A) (A) (A) (A) (A)
                 (A) (A) (A) (A) (A) (A) (A) (A) (A) (A) (A) (A)
                 (A) (A) (A) (A) (A) (A) (A) (A) (A) (A) (A) (A)
                 (A) (A) (A) (A) (A) (A) (A) (A) (A) (A) (A) (A)
                 (A) (A) (A) (A) (A) (A) (A) (A) (A) (A) (A) (A)
                 (A) (A) (A) (A) (A) (A) (A) (A) (A) (A) (A) (A)
                 (A) (A) (A) (A) (A) (A) (A) (A) (A) (A) (A) (A)
                 (A) (A) (A) (A) (A) (A) (A) (A) (A) (A) (A) (A)
                 (A) (A) (A) (A) (A) (A) (A) (A) (A) (A) (A) (A)
                 (A) (A) (A) (A) (A) (A) (A) (A) (A) (A) (A) (A)
                 (A) (A) (A) (A) (A) (A) (A) (A) (A) (A) (A) (A)
                 (A) (A) (A) (A) (A) (A) (A) (A) (A) (A) (A) (A)
                 (A) (A) (A) (A) (A) (A) (A) (A) (A) (A) (A) (A)
                 (A) (A) (A) (A) (A) (A) (A) (A) (A) (A) (A) (A)
                 (A) (A) (A) (A) (A) (A) (A) (A) (A) (A) (A) (A)
                 (A) (A) (A) (A) (A) (A) (A) (A) (A) (A) (A) (A)
                 (A) (A) (A) (A) (A) (A) (A) (A) (A) (A) (A) (A)
                 (A) (A) (A) (A) (A) (A) (A) (A) (A) (A) (A) (A)
                 (A) (A) (A) (A) (A) (A) (A) (A) (A) (A) (A) (A)
                 (A) (A) (A) (A) (A) (A) (A) (A) (A) (A) (A) (A)
                 (A) (A) (A) (A) (A) (A) (A) (A) (A) (A) (A) (A)
                 (A) (A) (A) (A) (A) (A) (A) (A) (A) (A) (A) (A)
                 (A) (A) (A) (A) (A) (A) (A) (A) (A) (A) (A) (A)
                 (A) (A) (A) (A) (A) (A) (A) (A) (A) (A) (A) (A)
                 (A) (A) (A) (A) (A) (A) (A) (A) (A) (A) (A) (A)
                 (A) (A) (A) (A) (A) (A) (A) (A) (A) (A) (A) (A)
                 (A) (A) (A) (A) (A) (A) (A) (A) (A) (A) (A) (A)
                 (A) (A) (A) (A) (A) (A) (A) (A) (A) (A) (A) (A)
                 (A) (A) (A) (A) (A) (A) (A) (A) (A) (A) (A) (A)
                 (A) (A) (A) (A) (A) (A) (A) (A) (A) (A) (A) (A)
                 (A) (A) (A) (A) (A) (A) (A) (A) (A) (A) (A) (A)
                 (A) (A) (A) (A) (A) (A) (A) (A) (A) (A) (A) (A)
                 (A) (A) (A) (A) (A) (A) (A) (A) (A) (A) (A) (A)
                 (A) (A) (A) (A) (A) (A) (A) (A) (A) (A) (A) (A)
                 (A) (A) (A) (A) (A) (A) (A) (A) (A) (A) (A) (A)
                 (A) (A) (A) (A) (A) (A) (A) (A) (A) (A) (A) (A)
                 (A) (A) (A) (A) (A) (A) (A) (A) (A) (A) (A) (A)
                 (A) (A) (A) (A) (A) (A) (A) (A) (A) (A) (A) (A)
                 (A) (A) (A) (A) (A) (A) (A) (A) (A) (A) (A) (A)
                 (A) (A) (A) (A) (A) (A) (A) (A) (A) (A) (A) (A)
                 (A) (A) (A) (A) (A) (A) (A) (A) (A) (A) (A) (A)
                 (A) (A) (A) (A) (A) (A) (A) (A) (A) (A) (A) (A)
                 (A) (A) (A) (A) (A) (A) (A) (A) (A) (A) (A) (A)
                 (A) (A) (A) (A) (A) (A) (A) (A) (A) (A) (A) (A)
                 (A) (A)
 The electronic state is 1-A.
 Alpha  occ. eigenvalues --  -90.10430 -90.10140 -90.09056 -90.08878 -19.73173
 Alpha  occ. eigenvalues --  -19.72607 -19.67174 -19.66309 -14.83727 -14.79679
 Alpha  occ. eigenvalues --  -10.73924 -10.73537 -10.67722 -10.66045 -10.65965
 Alpha  occ. eigenvalues --  -10.65619 -10.65544 -10.65343 -10.64771 -10.64692
 Alpha  occ. eigenvalues --  -10.64606 -10.64454 -10.64418 -10.64127 -10.64070
 Alpha  occ. eigenvalues --  -10.63942 -10.63761 -10.63206 -10.62655 -10.62498
 Alpha  occ. eigenvalues --  -10.62186 -10.61635 -10.61474 -10.61349 -10.60865
 Alpha  occ. eigenvalues --  -10.60591 -10.60553 -10.59901 -10.59863 -10.59838
 Alpha  occ. eigenvalues --  -10.59804 -10.59741 -10.59725 -10.59594 -10.59573
 Alpha  occ. eigenvalues --  -10.59570 -10.59514 -10.59490 -10.59450 -10.59350
 Alpha  occ. eigenvalues --  -10.59259  -8.39173  -8.38844  -8.37771  -8.37559
 Alpha  occ. eigenvalues --   -6.24951  -6.24668  -6.24616  -6.24376  -6.24356
 Alpha  occ. eigenvalues --   -6.24051  -6.23545  -6.23343  -6.23282  -6.23061
 Alpha  occ. eigenvalues --   -6.22983  -6.22711  -1.26044  -1.24976  -1.16785
 Alpha  occ. eigenvalues --   -1.16509  -1.10711  -1.06582  -1.05675  -1.03505
 Alpha  occ. eigenvalues --   -1.01958  -0.99702  -0.99118  -0.98903  -0.97393
 Alpha  occ. eigenvalues --   -0.96508  -0.95244  -0.91667  -0.90252  -0.88437
 Alpha  occ. eigenvalues --   -0.88299  -0.87872  -0.87214  -0.86803  -0.86666
 Alpha  occ. eigenvalues --   -0.86356  -0.85263  -0.84957  -0.83619  -0.82962
 Alpha  occ. eigenvalues --   -0.81191  -0.80947  -0.77373  -0.74739  -0.73710
 Alpha  occ. eigenvalues --   -0.73640  -0.72713  -0.72118  -0.71408  -0.71232
 Alpha  occ. eigenvalues --   -0.70546  -0.70134  -0.67885  -0.67090  -0.65650
 Alpha  occ. eigenvalues --   -0.65551  -0.64658  -0.64585  -0.63701  -0.62891
 Alpha  occ. eigenvalues --   -0.62591  -0.61908  -0.59868  -0.58867  -0.58370
 Alpha  occ. eigenvalues --   -0.57471  -0.57320  -0.57244  -0.56851  -0.55957
 Alpha  occ. eigenvalues --   -0.55595  -0.55414  -0.54360  -0.53974  -0.53787
 Alpha  occ. eigenvalues --   -0.53659  -0.53055  -0.52916  -0.52632  -0.52305
 Alpha  occ. eigenvalues --   -0.51734  -0.51475  -0.51218  -0.50984  -0.50942
 Alpha  occ. eigenvalues --   -0.50499  -0.50451  -0.50342  -0.49607  -0.48632
 Alpha  occ. eigenvalues --   -0.48414  -0.48274  -0.48031  -0.47820  -0.47296
 Alpha  occ. eigenvalues --   -0.46835  -0.46240  -0.45584  -0.45427  -0.45118
 Alpha  occ. eigenvalues --   -0.44658  -0.44447  -0.44325  -0.44147  -0.44077
 Alpha  occ. eigenvalues --   -0.43988  -0.43888  -0.43348  -0.43077  -0.42884
 Alpha  occ. eigenvalues --   -0.42622  -0.41934  -0.41850  -0.41743  -0.41413
 Alpha  occ. eigenvalues --   -0.40948  -0.40318  -0.39480  -0.39005  -0.38752
 Alpha  occ. eigenvalues --   -0.38340  -0.37923  -0.36562  -0.35842  -0.34766
 Alpha  occ. eigenvalues --   -0.32764  -0.32598  -0.31813  -0.31502  -0.31445
 Alpha  occ. eigenvalues --   -0.31342  -0.30938  -0.30417  -0.30174  -0.27465
 Alpha  occ. eigenvalues --   -0.24395  -0.22046
 Alpha virt. eigenvalues --   -0.08807  -0.04380  -0.02773   0.00519   0.00772
 Alpha virt. eigenvalues --    0.01422   0.01814   0.02580   0.03034   0.03434
 Alpha virt. eigenvalues --    0.03522   0.04587   0.05170   0.05744   0.05859
 Alpha virt. eigenvalues --    0.06467   0.06736   0.07177   0.07560   0.07833
 Alpha virt. eigenvalues --    0.08067   0.08438   0.08569   0.08752   0.09183
 Alpha virt. eigenvalues --    0.09379   0.10293   0.10424   0.10561   0.10696
 Alpha virt. eigenvalues --    0.10797   0.11200   0.11591   0.11821   0.11970
 Alpha virt. eigenvalues --    0.12363   0.12542   0.12862   0.13386   0.13731
 Alpha virt. eigenvalues --    0.14400   0.14545   0.14914   0.15004   0.15281
 Alpha virt. eigenvalues --    0.15534   0.15596   0.15887   0.16127   0.16401
 Alpha virt. eigenvalues --    0.17040   0.17228   0.17716   0.18075   0.18215
 Alpha virt. eigenvalues --    0.18628   0.19323   0.19397   0.19641   0.20049
 Alpha virt. eigenvalues --    0.20380   0.20674   0.21184   0.22082   0.22397
 Alpha virt. eigenvalues --    0.22757   0.22845   0.23223   0.23793   0.24351
 Alpha virt. eigenvalues --    0.25515   0.26041   0.26441   0.26553   0.27325
 Alpha virt. eigenvalues --    0.27765   0.28123   0.28406   0.28530   0.28783
 Alpha virt. eigenvalues --    0.29159   0.29957   0.30855   0.31036   0.31175
 Alpha virt. eigenvalues --    0.31671   0.31750   0.31963   0.32517   0.32890
 Alpha virt. eigenvalues --    0.33393   0.33497   0.33745   0.33962   0.34586
 Alpha virt. eigenvalues --    0.34961   0.35127   0.35444   0.35840   0.35984
 Alpha virt. eigenvalues --    0.36142   0.36472   0.36721   0.37445   0.37867
 Alpha virt. eigenvalues --    0.38629   0.39058   0.39452   0.39816   0.40291
 Alpha virt. eigenvalues --    0.40785   0.41429   0.41521   0.41661   0.41917
 Alpha virt. eigenvalues --    0.42069   0.42316   0.42577   0.42923   0.43271
 Alpha virt. eigenvalues --    0.43306   0.43533   0.43632   0.43900   0.44095
 Alpha virt. eigenvalues --    0.44555   0.44717   0.45058   0.45528   0.45632
 Alpha virt. eigenvalues --    0.45789   0.46164   0.46541   0.46918   0.47099
 Alpha virt. eigenvalues --    0.47306   0.47493   0.47717   0.48051   0.48117
 Alpha virt. eigenvalues --    0.48393   0.48476   0.48565   0.48813   0.49088
 Alpha virt. eigenvalues --    0.49132   0.49502   0.49624   0.49807   0.50040
 Alpha virt. eigenvalues --    0.50152   0.50176   0.50754   0.50833   0.51484
 Alpha virt. eigenvalues --    0.52185   0.52529   0.52763   0.53019   0.53399
 Alpha virt. eigenvalues --    0.53504   0.53570   0.53852   0.54008   0.54203
 Alpha virt. eigenvalues --    0.55044   0.55221   0.55683   0.56250   0.56403
 Alpha virt. eigenvalues --    0.56778   0.56864   0.57273   0.57652   0.57915
 Alpha virt. eigenvalues --    0.58268   0.58648   0.59306   0.59601   0.59683
 Alpha virt. eigenvalues --    0.60144   0.60403   0.60842   0.61062   0.61395
 Alpha virt. eigenvalues --    0.61634   0.61703   0.61975   0.62520   0.62730
 Alpha virt. eigenvalues --    0.62868   0.63067   0.63299   0.63424   0.63910
 Alpha virt. eigenvalues --    0.64192   0.64555   0.64791   0.64987   0.65334
 Alpha virt. eigenvalues --    0.65637   0.65766   0.66188   0.66597   0.66746
 Alpha virt. eigenvalues --    0.66852   0.66984   0.67182   0.67371   0.67553
 Alpha virt. eigenvalues --    0.67601   0.67737   0.67910   0.68132   0.68502
 Alpha virt. eigenvalues --    0.68688   0.68886   0.69039   0.69089   0.69816
 Alpha virt. eigenvalues --    0.69880   0.70039   0.70337   0.70676   0.70950
 Alpha virt. eigenvalues --    0.71526   0.71854   0.72084   0.72167   0.72446
 Alpha virt. eigenvalues --    0.72912   0.73499   0.73605   0.73864   0.74221
 Alpha virt. eigenvalues --    0.74639   0.75017   0.75105   0.75418   0.76539
 Alpha virt. eigenvalues --    0.76730   0.77632   0.77652   0.77895   0.78137
 Alpha virt. eigenvalues --    0.78554   0.78923   0.79362   0.79679   0.79852
 Alpha virt. eigenvalues --    0.80611   0.80836   0.80925   0.81364   0.81685
 Alpha virt. eigenvalues --    0.82362   0.82639   0.83239   0.83578   0.84255
 Alpha virt. eigenvalues --    0.84512   0.84877   0.85239   0.85507   0.85519
 Alpha virt. eigenvalues --    0.85939   0.86046   0.86509   0.86938   0.87554
 Alpha virt. eigenvalues --    0.87910   0.88206   0.88378   0.88749   0.88907
 Alpha virt. eigenvalues --    0.89105   0.89546   0.89629   0.90214   0.90581
 Alpha virt. eigenvalues --    0.90958   0.91126   0.91449   0.91591   0.92032
 Alpha virt. eigenvalues --    0.92269   0.92327   0.92854   0.93038   0.93990
 Alpha virt. eigenvalues --    0.94251   0.94781   0.94923   0.95054   0.95692
 Alpha virt. eigenvalues --    0.95886   0.95992   0.96552   0.96825   0.97194
 Alpha virt. eigenvalues --    0.97401   0.97628   0.97876   0.98012   0.98323
 Alpha virt. eigenvalues --    0.98647   0.98718   0.99917   1.00246   1.00985
 Alpha virt. eigenvalues --    1.01292   1.01710   1.02056   1.02532   1.02617
 Alpha virt. eigenvalues --    1.03074   1.03920   1.04218   1.04705   1.05384
 Alpha virt. eigenvalues --    1.05780   1.05964   1.06278   1.06952   1.07100
 Alpha virt. eigenvalues --    1.07196   1.07452   1.07882   1.08839   1.08949
 Alpha virt. eigenvalues --    1.09314   1.10125   1.10594   1.10954   1.11381
 Alpha virt. eigenvalues --    1.11425   1.13052   1.13378   1.13699   1.13957
 Alpha virt. eigenvalues --    1.14546   1.15000   1.15461   1.15565   1.15668
 Alpha virt. eigenvalues --    1.15905   1.16649   1.17017   1.17516   1.17682
 Alpha virt. eigenvalues --    1.18385   1.18675   1.18913   1.19897   1.20151
 Alpha virt. eigenvalues --    1.20332   1.20468   1.21069   1.21214   1.21674
 Alpha virt. eigenvalues --    1.22016   1.22389   1.23800   1.24623   1.25194
 Alpha virt. eigenvalues --    1.25738   1.26343   1.26771   1.27134   1.29306
 Alpha virt. eigenvalues --    1.29758   1.30312   1.31709   1.32008   1.32310
 Alpha virt. eigenvalues --    1.32912   1.32924   1.33529   1.34619   1.35316
 Alpha virt. eigenvalues --    1.35904   1.36534   1.37451   1.38598   1.39863
 Alpha virt. eigenvalues --    1.40797   1.41305   1.41944   1.43169   1.43810
 Alpha virt. eigenvalues --    1.44333   1.44513   1.44635   1.45152   1.46209
 Alpha virt. eigenvalues --    1.46633   1.47034   1.47367   1.47668   1.48156
 Alpha virt. eigenvalues --    1.48369   1.50423   1.50825   1.51224   1.51669
 Alpha virt. eigenvalues --    1.51691   1.51969   1.52275   1.53174   1.54012
 Alpha virt. eigenvalues --    1.54133   1.54404   1.54434   1.54652   1.54971
 Alpha virt. eigenvalues --    1.55260   1.55560   1.56319   1.56499   1.56743
 Alpha virt. eigenvalues --    1.56886   1.57465   1.57756   1.58033   1.58472
 Alpha virt. eigenvalues --    1.59042   1.59396   1.60213   1.60278   1.61293
 Alpha virt. eigenvalues --    1.61512   1.61962   1.62228   1.62670   1.63112
 Alpha virt. eigenvalues --    1.63864   1.64012   1.64434   1.64842   1.65355
 Alpha virt. eigenvalues --    1.65648   1.66093   1.66167   1.66365   1.66614
 Alpha virt. eigenvalues --    1.66936   1.67093   1.67259   1.67842   1.68500
 Alpha virt. eigenvalues --    1.68762   1.69095   1.69275   1.69704   1.69838
 Alpha virt. eigenvalues --    1.70529   1.70919   1.71642   1.72360   1.72454
 Alpha virt. eigenvalues --    1.72745   1.72824   1.73308   1.73843   1.74096
 Alpha virt. eigenvalues --    1.74390   1.74868   1.75118   1.75363   1.75457
 Alpha virt. eigenvalues --    1.75971   1.76118   1.76540   1.76707   1.77571
 Alpha virt. eigenvalues --    1.77878   1.78468   1.78929   1.79295   1.79477
 Alpha virt. eigenvalues --    1.80508   1.81250   1.81530   1.82024   1.82200
 Alpha virt. eigenvalues --    1.82413   1.82587   1.82976   1.83500   1.83550
 Alpha virt. eigenvalues --    1.83699   1.84407   1.84563   1.86328   1.86547
 Alpha virt. eigenvalues --    1.86602   1.86723   1.87009   1.87446   1.88000
 Alpha virt. eigenvalues --    1.88361   1.88651   1.88891   1.90107   1.90541
 Alpha virt. eigenvalues --    1.91095   1.91406   1.92374   1.92404   1.93403
 Alpha virt. eigenvalues --    1.93915   1.94522   1.94681   1.96264   1.96658
 Alpha virt. eigenvalues --    1.97351   1.97448   1.98562   1.98919   1.99422
 Alpha virt. eigenvalues --    1.99550   1.99931   2.00260   2.00492   2.00698
 Alpha virt. eigenvalues --    2.00891   2.01305   2.01342   2.01503   2.01766
 Alpha virt. eigenvalues --    2.02193   2.02380   2.02749   2.03236   2.03637
 Alpha virt. eigenvalues --    2.04036   2.04198   2.05193   2.05431   2.05768
 Alpha virt. eigenvalues --    2.05965   2.06659   2.06889   2.07632   2.07836
 Alpha virt. eigenvalues --    2.08304   2.08901   2.09077   2.09796   2.10512
 Alpha virt. eigenvalues --    2.10710   2.11174   2.11418   2.11706   2.12170
 Alpha virt. eigenvalues --    2.12754   2.13483   2.13834   2.14343   2.15203
 Alpha virt. eigenvalues --    2.15677   2.15932   2.16196   2.16849   2.16980
 Alpha virt. eigenvalues --    2.17230   2.17790   2.17953   2.18781   2.19279
 Alpha virt. eigenvalues --    2.20074   2.20443   2.21398   2.21940   2.22163
 Alpha virt. eigenvalues --    2.22349   2.22835   2.23140   2.23469   2.25214
 Alpha virt. eigenvalues --    2.26231   2.26314   2.26787   2.27089   2.27680
 Alpha virt. eigenvalues --    2.28712   2.30532   2.30818   2.32520   2.33959
 Alpha virt. eigenvalues --    2.34207   2.35452   2.35780   2.36493   2.37539
 Alpha virt. eigenvalues --    2.37945   2.38888   2.39191   2.40016   2.40529
 Alpha virt. eigenvalues --    2.41597   2.42060   2.42652   2.42851   2.44080
 Alpha virt. eigenvalues --    2.44455   2.44656   2.45261   2.45997   2.46537
 Alpha virt. eigenvalues --    2.46968   2.47776   2.48845   2.48965   2.49276
 Alpha virt. eigenvalues --    2.49643   2.50093   2.50759   2.51387   2.52994
 Alpha virt. eigenvalues --    2.53628   2.54459   2.54707   2.56450   2.56562
 Alpha virt. eigenvalues --    2.56629   2.57468   2.58572   2.59700   2.60990
 Alpha virt. eigenvalues --    2.61311   2.61334   2.61525   2.62176   2.63160
 Alpha virt. eigenvalues --    2.64332   2.64449   2.65104   2.65438   2.65629
 Alpha virt. eigenvalues --    2.66137   2.66250   2.67040   2.69627   2.70100
 Alpha virt. eigenvalues --    2.70191   2.70280   2.70536   2.70807   2.70958
 Alpha virt. eigenvalues --    2.71673   2.71818   2.72240   2.72359   2.72682
 Alpha virt. eigenvalues --    2.72880   2.73181   2.73610   2.73617   2.74031
 Alpha virt. eigenvalues --    2.74384   2.74425   2.74844   2.75698   2.76109
 Alpha virt. eigenvalues --    2.76926   2.76998   2.77255   2.77569   2.77690
 Alpha virt. eigenvalues --    2.77896   2.78619   2.79089   2.79895   2.80654
 Alpha virt. eigenvalues --    2.80779   2.81486   2.81769   2.82286   2.83287
 Alpha virt. eigenvalues --    2.83456   2.85366   2.85831   2.86582   2.86946
 Alpha virt. eigenvalues --    2.87473   2.89267   2.90595   2.90754   2.90868
 Alpha virt. eigenvalues --    2.91490   2.91740   2.92855   2.93231   2.93767
 Alpha virt. eigenvalues --    2.94427   2.94550   2.95588   2.96393   2.97209
 Alpha virt. eigenvalues --    2.97378   2.97482   2.97903   2.98021   2.98252
 Alpha virt. eigenvalues --    2.98714   2.98932   2.99052   3.01472   3.01701
 Alpha virt. eigenvalues --    3.02303   3.02371   3.02590   3.03006   3.03434
 Alpha virt. eigenvalues --    3.03831   3.04001   3.04646   3.05113   3.05685
 Alpha virt. eigenvalues --    3.06254   3.07058   3.07925   3.08434   3.09347
 Alpha virt. eigenvalues --    3.10066   3.10294   3.10960   3.11834   3.12903
 Alpha virt. eigenvalues --    3.13265   3.13744   3.14793   3.16644   3.16987
 Alpha virt. eigenvalues --    3.18871   3.20224   3.20854   3.21132   3.21345
 Alpha virt. eigenvalues --    3.21836   3.23201   3.23480   3.23671   3.25040
 Alpha virt. eigenvalues --    3.25893   3.28027   3.28559   3.29675   3.30655
 Alpha virt. eigenvalues --    3.31452   3.31944   3.32181   3.32513   3.33092
 Alpha virt. eigenvalues --    3.33783   3.34650   3.35653   3.36978   3.38923
 Alpha virt. eigenvalues --    3.39906   3.40744   3.41316   3.43865   3.45696
 Alpha virt. eigenvalues --    3.47079   3.47196   3.49161   3.49490   3.49703
 Alpha virt. eigenvalues --    3.50232   3.50730   3.50919   3.52115   3.52210
 Alpha virt. eigenvalues --    3.55280   3.56050   3.56856   3.57834   3.59931
 Alpha virt. eigenvalues --    3.60640   3.61004   3.61240   3.62127   3.62911
 Alpha virt. eigenvalues --    3.63394   3.64437   3.65259   3.67328   3.67800
 Alpha virt. eigenvalues --    3.71117   3.71658   3.73417   3.74980   3.76128
 Alpha virt. eigenvalues --    3.76694   3.77184   3.82476   3.83094   3.88580
 Alpha virt. eigenvalues --    3.88840   3.89102   3.90725   3.92102   3.92373
 Alpha virt. eigenvalues --    3.93070   3.95229   3.95421   3.98054   3.99083
 Alpha virt. eigenvalues --    4.00082   4.04987   4.06058   4.08073   4.10119
 Alpha virt. eigenvalues --    4.10556   4.10712   4.11306   4.11569   4.12485
 Alpha virt. eigenvalues --    4.16763   4.17557   4.19251   4.22142   4.24472
 Alpha virt. eigenvalues --    4.25217   4.25837   4.26179   4.26737   4.28110
 Alpha virt. eigenvalues --    4.30432   4.30938   4.32988   4.38357   4.40589
 Alpha virt. eigenvalues --    4.44285   4.47761   4.64079   4.68155   4.69698
 Alpha virt. eigenvalues --    4.72352   4.81751   4.97959   4.98237   4.98657
 Alpha virt. eigenvalues --    5.03306   5.03991   5.11389   5.11933   5.20233
 Alpha virt. eigenvalues --    5.22851   5.25054   5.28627   5.41865   5.46381
 Alpha virt. eigenvalues --    5.73673   5.81687   5.96882   5.97512   7.98622
 Alpha virt. eigenvalues --    8.00305   8.02770   8.04970  17.56402  17.57704
 Alpha virt. eigenvalues --   17.59617  17.60282  17.80049  17.83310  17.84149
 Alpha virt. eigenvalues --   17.87802  17.89582  17.89626  17.93025  17.94872
 Alpha virt. eigenvalues --   23.74710  23.84108  23.90066  23.95415  23.95836
 Alpha virt. eigenvalues --   24.00046  24.05859  24.11312  24.14669  24.18634
 Alpha virt. eigenvalues --   24.20143  24.20958  24.22934  24.27368  24.27588
 Alpha virt. eigenvalues --   24.31971  24.32142  24.32729  24.33468  24.34082
 Alpha virt. eigenvalues --   24.34610  24.34710  24.38557  24.40672  24.42226
 Alpha virt. eigenvalues --   24.42577  24.43455  24.45200  24.47367  24.47623
 Alpha virt. eigenvalues --   24.50852  24.51478  24.51641  24.51839  24.52630
 Alpha virt. eigenvalues --   24.53297  24.54590  24.58450  24.60064  24.60242
 Alpha virt. eigenvalues --   24.85487  36.15594  36.34327  50.45132  50.47786
 Alpha virt. eigenvalues --   50.61114  50.62462 190.08464 190.10062 190.12191
 Alpha virt. eigenvalues --  190.14184
          Condensed to atoms (all electrons):
 Mulliken charges:
               1
     1  C   -0.318968
     2  C    0.032900
     3  C   -0.183492
     4  C   -0.202264
     5  S    0.311152
     6  C   -0.258652
     7  C    0.000934
     8  C   -0.096123
     9  C   -0.104055
    10  C    0.176059
    11  N   -0.565021
    12  C    0.113825
    13  C   -0.091447
    14  H    0.117723
    15  C   -0.090913
    16  C   -0.103100
    17  C   -0.089995
    18  C   -0.091345
    19  H    0.117932
    20  H    0.106425
    21  H    0.103709
    22  H    0.105935
    23  C    0.112921
    24  C   -0.091640
    25  C   -0.090390
    26  C   -0.103516
    27  C   -0.090835
    28  C   -0.090374
    29  H    0.118054
    30  H    0.106053
    31  H    0.103321
    32  H    0.105364
    33  H    0.117317
    34  C   -0.102471
    35  C   -0.058943
    36  H    0.100825
    37  H    0.124229
    38  H    0.125672
    39  H    0.113168
    40  C   -0.009438
    41  C    0.049634
    42  H    0.103376
    43  S    0.350644
    44  C   -0.245351
    45  C   -0.012651
    46  H    0.115183
    47  C   -0.175746
    48  S    0.343439
    49  C   -0.342621
    50  C   -0.065045
    51  C    0.009995
    52  C    0.041922
    53  C   -0.379073
    54  S    0.394409
    55  C    0.527677
    56  O   -0.389517
    57  O   -0.386771
    58  C   -0.085312
    59  H    0.124398
    60  H    0.126677
    61  H    0.129917
    62  H    0.144723
    63  C    0.024447
    64  C   -0.189133
    65  C    0.083260
    66  N   -0.255244
    67  C    0.503441
    68  O   -0.333062
    69  O   -0.345049
    70  H    0.250931
    71  H    0.115541
    72  C   -0.203689
    73  H    0.124368
    74  H    0.109305
    75  H    0.111466
    76  C   -0.202197
    77  H    0.125039
    78  H    0.110595
    79  H    0.109539
 Sum of Mulliken charges =   0.00000
 Mulliken charges with hydrogens summed into heavy atoms:
               1
     1  C   -0.318968
     2  C    0.032900
     3  C   -0.183492
     4  C   -0.202264
     5  S    0.311152
     6  C   -0.258652
     7  C    0.000934
     8  C    0.017045
     9  C    0.021617
    10  C    0.176059
    11  N   -0.565021
    12  C    0.113825
    13  C    0.026276
    15  C    0.015022
    16  C    0.000608
    17  C    0.016431
    18  C    0.026587
    23  C    0.112921
    24  C    0.025676
    25  C    0.014974
    26  C   -0.000195
    27  C    0.015218
    28  C    0.027680
    34  C    0.021758
    35  C    0.041883
    40  C    0.093938
    41  C    0.049634
    43  S    0.350644
    44  C   -0.245351
    45  C    0.102532
    47  C   -0.175746
    48  S    0.343439
    49  C   -0.342621
    50  C   -0.065045
    51  C    0.009995
    52  C    0.186644
    53  C   -0.379073
    54  S    0.394409
    55  C    0.527677
    56  O   -0.389517
    57  O   -0.386771
    58  C    0.295680
    63  C    0.139988
    64  C   -0.189133
    65  C    0.083260
    66  N   -0.255244
    67  C    0.503441
    68  O   -0.333062
    69  O   -0.094118
    72  C    0.141451
    76  C    0.142976
 Electronic spatial extent (au):  <R**2>=          82154.0201
 Charge=              0.0000 electrons
 Dipole moment (field-independent basis, Debye):
    X=            -13.4394    Y=             -2.9637    Z=             -4.4039  Tot=             14.4498
 Quadrupole moment (field-independent basis, Debye-Ang):
   XX=           -424.7201   YY=           -291.8956   ZZ=           -327.5296
   XY=              7.5372   XZ=            -46.2807   YZ=              5.4599
 Traceless Quadrupole moment (field-independent basis, Debye-Ang):
   XX=            -76.6717   YY=             56.1528   ZZ=             20.5188
   XY=              7.5372   XZ=            -46.2807   YZ=              5.4599
 Octapole moment (field-independent basis, Debye-Ang**2):
  XXX=          -2316.4227  YYY=            102.1440  ZZZ=            -23.3786  XYY=             30.5661
  XXY=            198.4634  XXZ=           -524.6704  XZZ=            -36.9571  YZZ=             13.9957
  YYZ=            -38.4891  XYZ=            -47.8512
 Hexadecapole moment (field-independent basis, Debye-Ang**3):
 XXXX=        -120804.1736 YYYY=          -9731.1265 ZZZZ=          -1842.6926 XXXY=           3117.2164
 XXXZ=          -5594.0035 YYYX=            920.1758 YYYZ=            -61.3938 ZZZX=           -189.8758
 ZZZY=            -25.8325 XXYY=         -17090.4391 XXZZ=         -17585.7247 YYZZ=          -1994.1894
 XXYZ=            300.0541 YYXZ=           -450.6606 ZZXY=             39.5737
 N-N= 6.387631319282D+03 E-N=-2.118910421695D+04  KE= 3.571788442635D+03
 1\1\GINC-N019\SP\RBHandHLYP TD-FC\6-311G(d,p)\C41H28N2O4S4\R2532\16-Se
 p-2021\0\\#N TD(NStates=10) bhandhlyp/6-311G(d,p)\\Name\\0,1\C,0,-0.01
 2345,-2.980026,-0.407714\C,0,1.181844,-2.045438,-0.222401\C,0,0.7522,-
 0.744172,0.01821\C,0,-0.678945,-0.71242,0.018957\S,0,-1.952649,0.43609
 8,0.234611\C,0,-3.166989,-0.822632,-0.024199\C,0,-4.590214,-0.504269,0
 .02373\C,0,-5.077595,0.785619,-0.249982\C,0,-6.432593,1.072378,-0.2145
 9\C,0,-7.369931,0.075781,0.10204\N,0,-8.750787,0.360996,0.139017\C,0,-
 9.214154,1.625471,0.604336\C,0,-10.211451,2.315082,-0.096618\H,0,-10.6
 21524,1.883625,-1.001624\C,0,-10.673568,3.54236,0.368124\C,0,-10.14020
 6,4.107439,1.525024\C,0,-9.143025,3.426075,2.220855\C,0,-8.687099,2.19
 0479,1.772925\H,0,-7.922238,1.658029,2.325222\H,0,-8.725837,3.850586,3
 .127182\H,0,-10.49777,5.066545,1.880804\H,0,-11.44616,4.064263,-0.1853
 71\C,0,-9.697475,-0.610328,-0.296792\C,0,-9.491944,-1.320371,-1.486903
 \C,0,-10.419217,-2.268662,-1.90651\C,0,-11.570826,-2.511165,-1.159718\
 C,0,-11.782979,-1.798229,0.018937\C,0,-10.852595,-0.860168,0.45489\H,0
 ,-11.016238,-0.314505,1.376158\H,0,-12.672641,-1.980152,0.611433\H,0,-
 12.294962,-3.245179,-1.493156\H,0,-10.246749,-2.809387,-2.830429\H,0,-
 8.605701,-1.124463,-2.078241\C,0,-6.892132,-1.215381,0.383799\C,0,-5.5
 36667,-1.494682,0.34425\H,0,-5.201094,-2.491617,0.604837\H,0,-7.593124
 ,-1.996191,0.650665\H,0,-6.774959,2.072453,-0.448304\H,0,-4.386677,1.5
 72727,-0.531103\C,0,-2.566632,-2.050285,-0.246603\C,0,-1.159785,-1.989
 277,-0.220778\H,0,-3.14131,-2.943633,-0.451656\S,0,2.061887,0.356529,0
 .220661\C,0,3.231933,-0.951498,-0.037351\C,0,2.575347,-2.161542,-0.253
 04\H,0,3.115099,-3.079791,-0.447226\C,0,4.640379,-0.717411,0.02324\S,0
 ,5.733327,-2.034076,0.349049\C,0,7.181931,-1.019341,0.262279\C,0,6.783
 6,0.295128,0.016413\C,0,5.371044,0.46985,-0.133365\C,0,5.025084,1.8012
 68,-0.51772\C,0,6.119705,2.595367,-0.66224\S,0,7.647231,1.775514,-0.31
 5112\C,0,6.069008,4.017068,-1.053967\O,0,5.049654,4.62232,-1.285892\O,
 0,7.303607,4.551046,-1.121623\C,0,7.370376,5.942741,-1.483219\H,0,6.94
 4427,6.097414,-2.475575\H,0,6.823812,6.548393,-0.759226\H,0,8.428176,6
 .193112,-1.474066\H,0,4.027359,2.172062,-0.70061\C,0,8.432625,-1.68148
 1,0.378047\C,0,9.676085,-1.205887,0.713146\C,0,9.888149,0.086727,1.261
 912\N,0,10.053217,1.127542,1.738771\C,0,10.879484,-2.097164,0.718285\O
 ,0,11.846749,-1.900768,1.397866\O,0,10.816483,-3.192706,-0.094466\H,0,
 10.132726,-3.071141,-0.762969\H,0,8.379649,-2.754691,0.20737\C,0,-0.02
 7915,-3.601173,-1.821045\H,0,-0.007959,-2.826361,-2.589895\H,0,0.83920
 7,-4.251575,-1.964513\H,0,-0.928742,-4.203986,-1.963969\C,0,-0.040437,
 -4.085156,0.669821\H,0,-0.025893,-3.65535,1.673304\H,0,-0.943515,-4.69
 3214,0.569463\H,0,0.824494,-4.745968,0.565774\\Version=ES64L-G09RevD.0
 1\State=1-A\HF=-3581.6298786\RMSD=9.615e-09\PG=C01 [X(C41H28N2O4S4)]\\
 @


 SCIENCE AND PEACE WILL TRIUMPH OVER IGNORANCE AND WAR

                          -- PASTEUR
 Job cpu time:       0 days  9 hours 39 minutes 18.1 seconds.
 File lengths (MBytes):  RWF=   3014 Int=      0 D2E=      0 Chk=    438 Scr=      1
 Normal termination of Gaussian 09 at Thu Sep 16 20:21:00 2021.
