 Entering Gaussian System, Link 0=/usr/local/apps//g09/g09
 Input=ES.com
 Output=ES.out
 Initial command:
 /usr/local/apps//g09/l1.exe "/tmp/bnp.467994.sequoia/Gau-2723.inp" -scrdir="/tmp/bnp.467994.sequoia/"
 Entering Link 1 = /usr/local/apps//g09/l1.exe PID=      2724.
  
 Copyright (c) 1988,1990,1992,1993,1995,1998,2003,2009,2013,
            Gaussian, Inc.  All Rights Reserved.
  
 This is part of the Gaussian(R) 09 program.  It is based on
 the Gaussian(R) 03 system (copyright 2003, Gaussian, Inc.),
 the Gaussian(R) 98 system (copyright 1998, Gaussian, Inc.),
 the Gaussian(R) 94 system (copyright 1995, Gaussian, Inc.),
 the Gaussian 92(TM) system (copyright 1992, Gaussian, Inc.),
 the Gaussian 90(TM) system (copyright 1990, Gaussian, Inc.),
 the Gaussian 88(TM) system (copyright 1988, Gaussian, Inc.),
 the Gaussian 86(TM) system (copyright 1986, Carnegie Mellon
 University), and the Gaussian 82(TM) system (copyright 1983,
 Carnegie Mellon University). Gaussian is a federally registered
 trademark of Gaussian, Inc.
  
 This software contains proprietary and confidential information,
 including trade secrets, belonging to Gaussian, Inc.
  
 This software is provided under written license and may be
 used, copied, transmitted, or stored only in accord with that
 written license.
  
 The following legend is applicable only to US Government
 contracts under FAR:
  
                    RESTRICTED RIGHTS LEGEND
  
 Use, reproduction and disclosure by the US Government is
 subject to restrictions as set forth in subparagraphs (a)
 and (c) of the Commercial Computer Software - Restricted
 Rights clause in FAR 52.227-19.
  
 Gaussian, Inc.
 340 Quinnipiac St., Bldg. 40, Wallingford CT 06492
  
  
 ---------------------------------------------------------------
 Warning -- This program may not be used in any manner that
 competes with the business of Gaussian, Inc. or will provide
 assistance to any competitor of Gaussian, Inc.  The licensee
 of this program is prohibited from giving any competitor of
 Gaussian, Inc. access to this program.  By using this program,
 the user acknowledges that Gaussian, Inc. is engaged in the
 business of creating and licensing software in the field of
 computational chemistry and represents and warrants to the
 licensee that it is not a competitor of Gaussian, Inc. and that
 it will not use this program in any manner prohibited above.
 ---------------------------------------------------------------
  

 Cite this work as:
 Gaussian 09, Revision D.01,
 M. J. Frisch, G. W. Trucks, H. B. Schlegel, G. E. Scuseria, 
 M. A. Robb, J. R. Cheeseman, G. Scalmani, V. Barone, B. Mennucci, 
 G. A. Petersson, H. Nakatsuji, M. Caricato, X. Li, H. P. Hratchian, 
 A. F. Izmaylov, J. Bloino, G. Zheng, J. L. Sonnenberg, M. Hada, 
 M. Ehara, K. Toyota, R. Fukuda, J. Hasegawa, M. Ishida, T. Nakajima, 
 Y. Honda, O. Kitao, H. Nakai, T. Vreven, J. A. Montgomery, Jr., 
 J. E. Peralta, F. Ogliaro, M. Bearpark, J. J. Heyd, E. Brothers, 
 K. N. Kudin, V. N. Staroverov, T. Keith, R. Kobayashi, J. Normand, 
 K. Raghavachari, A. Rendell, J. C. Burant, S. S. Iyengar, J. Tomasi, 
 M. Cossi, N. Rega, J. M. Millam, M. Klene, J. E. Knox, J. B. Cross, 
 V. Bakken, C. Adamo, J. Jaramillo, R. Gomperts, R. E. Stratmann, 
 O. Yazyev, A. J. Austin, R. Cammi, C. Pomelli, J. W. Ochterski, 
 R. L. Martin, K. Morokuma, V. G. Zakrzewski, G. A. Voth, 
 P. Salvador, J. J. Dannenberg, S. Dapprich, A. D. Daniels, 
 O. Farkas, J. B. Foresman, J. V. Ortiz, J. Cioslowski, 
 and D. J. Fox, Gaussian, Inc., Wallingford CT, 2013.
 
 ******************************************
 Gaussian 09:  ES64L-G09RevD.01 24-Apr-2013
                30-May-2021 
 ******************************************
 %mem=8gb
 -----------------------------------
 #N TD(NStates=10) B3lYP/6-311G(d,p)
 -----------------------------------
 1/38=1/1;
 2/12=2,17=6,18=5,40=1/2;
 3/5=4,6=6,7=101,11=9,16=1,25=1,30=1,74=-5/1,2,8,3;
 4//1;
 5/5=2,38=5/2;
 8/6=1,10=2,108=10/1;
 9/41=10,42=1,70=2/14;
 6/7=2,8=2,9=2,10=2/1;
 99/5=1,9=1/99;
 ----
 Name
 ----
 Symbolic Z-matrix:
 Charge =  0 Multiplicity = 1
 6                    -8.18249   7.12857  -1.10595 
 8                    -7.42423   6.34312  -0.19744 
 6                    -7.5943    4.99053  -0.21021 
 6                    -8.46962   4.30292  -1.0542 
 6                    -8.55607   2.91276  -0.98279 
 6                    -7.79456   2.18938  -0.06524 
 7                    -7.91427   0.76933   0.02046 
 6                    -6.77422  -0.05077   0.00591 
 6                    -6.76859  -1.29719   0.65948 
 6                    -5.6441   -2.1045    0.64103 
 6                    -4.46769  -1.71623  -0.02414 
 6                    -4.47861  -0.4671   -0.66724 
 6                    -5.59988   0.34647  -0.65834 
 1                    -5.57691   1.29358  -1.18167 
 1                    -3.60271  -0.13803  -1.21567 
 6                    -3.29801  -2.59042  -0.04035 
 16                   -1.67925  -1.94831  -0.23798 
 6                    -0.95647  -3.54292  -0.13865 
 6                    -1.93757  -4.49439   0.04475 
 6                    -3.24434  -3.96144   0.09347 
 1                    -4.13075  -4.57135   0.20492 
 1                    -1.7165   -5.548     0.15327 
 6                     0.46609  -3.75546  -0.25352 
 16                    1.62597  -2.48934   0.09096 
 6                     2.98241  -3.54288  -0.26359 
 6                     2.52668  -4.8025   -0.6028 
 6                     1.12366  -4.92082  -0.59969 
 1                     0.5986   -5.82419  -0.87889 
 1                     3.19202  -5.60749  -0.88481 
 6                     4.3482   -3.09528  -0.18096 
 6                     5.48985  -3.87575  -0.10766 
 6                     6.68132  -3.1349   -0.04921 
 6                     6.49506  -1.76173  -0.0655 
 16                    4.77339  -1.40069  -0.18014 
 6                     7.47084  -0.70005  -0.00417 
 6                     7.11059   0.64547   0.0181 
 6                     8.02713   1.70904   0.07505 
 6                     9.40489   1.52292   0.11638 
 6                     9.83934   0.14915   0.09659 
 6                     8.89384  -0.95133   0.03749 
 7                     9.48662  -2.14553   0.02673 
 16                    11.10304  -1.88727   0.08721 
 7                     11.10984  -0.25003   0.12872 
 6                     10.41614   2.5474    0.17702 
 6                     10.31804   3.90763   0.20624 
 6                     9.08674   4.62455   0.17921 
 7                     8.07401   5.18156   0.15628 
 6                     11.52734   4.77024   0.2703 
 8                     12.68259   4.06085   0.29514 
 1                     13.39522   4.71429   0.33615 
 8                     11.50277   5.97554   0.29799 
 1                     11.42922   2.16391   0.20395 
 1                     7.62185   2.7108    0.08811 
 1                     6.0591    0.90584  -0.00696 
 1                     7.6642   -3.57476   0.01645 
 1                     5.45769  -4.95616  -0.07315 
 1                    -5.66562  -3.04124   1.18587 
 1                    -7.64961  -1.62062   1.19872 
 6                    -9.22024   0.20113   0.11517 
 6                    -10.13961   0.68271   1.04701 
 6                    -11.42803   0.15491   1.12779 
 6                    -11.80829  -0.88771   0.2795 
 6                    -10.88714  -1.38091  -0.65371 
 6                    -9.61665  -0.83716  -0.74146 
 1                    -8.91767  -1.21786  -1.47661 
 1                    -11.19929  -2.18243  -1.31221 
 8                    -13.03519  -1.48295   0.27622 
 6                    -14.01309  -1.02042   1.19658 
 1                    -13.68725  -1.1581    2.2338 
 1                    -14.25482   0.03541   1.02963 
 1                    -14.90055  -1.62474   1.01626 
 1                    -12.11458   0.55781   1.86016 
 1                    -9.85      1.48633   1.71356 
 6                    -6.92769   2.8905    0.78659 
 6                    -6.82057   4.26876   0.70812 
 1                    -6.15277   4.81606   1.36226 
 1                    -6.33444   2.34484   1.51064 
 1                    -9.23205   2.38559  -1.64544 
 1                    -9.07899   4.83012  -1.77583 
 1                    -7.89437   8.1615   -0.91818 
 1                    -7.95366   6.87344  -2.14684 
 1                    -9.25887   7.01634  -0.93299 
 
 Stoichiometry    C42H28N4O4S4
 Framework group  C1[X(C42H28N4O4S4)]
 Deg. of freedom   240
 Full point group                 C1      NOp   1
 Largest Abelian subgroup         C1      NOp   1
 Largest concise Abelian subgroup C1      NOp   1
                         Standard orientation:                         
 ---------------------------------------------------------------------
 Center     Atomic      Atomic             Coordinates (Angstroms)
 Number     Number       Type             X           Y           Z
 ---------------------------------------------------------------------
      1          6           0       -8.182487    7.128568   -1.105953
      2          8           0       -7.424227    6.343120   -0.197444
      3          6           0       -7.594299    4.990534   -0.210206
      4          6           0       -8.469618    4.302920   -1.054202
      5          6           0       -8.556066    2.912758   -0.982790
      6          6           0       -7.794556    2.189376   -0.065242
      7          7           0       -7.914267    0.769334    0.020459
      8          6           0       -6.774216   -0.050771    0.005910
      9          6           0       -6.768593   -1.297194    0.659475
     10          6           0       -5.644102   -2.104499    0.641031
     11          6           0       -4.467692   -1.716233   -0.024144
     12          6           0       -4.478614   -0.467096   -0.667243
     13          6           0       -5.599876    0.346473   -0.658344
     14          1           0       -5.576908    1.293575   -1.181667
     15          1           0       -3.602711   -0.138034   -1.215670
     16          6           0       -3.298009   -2.590422   -0.040351
     17         16           0       -1.679247   -1.948306   -0.237981
     18          6           0       -0.956467   -3.542922   -0.138653
     19          6           0       -1.937570   -4.494386    0.044753
     20          6           0       -3.244337   -3.961437    0.093471
     21          1           0       -4.130751   -4.571350    0.204916
     22          1           0       -1.716499   -5.548000    0.153267
     23          6           0        0.466090   -3.755461   -0.253515
     24         16           0        1.625967   -2.489340    0.090960
     25          6           0        2.982405   -3.542881   -0.263590
     26          6           0        2.526680   -4.802500   -0.602800
     27          6           0        1.123658   -4.920823   -0.599690
     28          1           0        0.598595   -5.824193   -0.878894
     29          1           0        3.192024   -5.607489   -0.884805
     30          6           0        4.348203   -3.095277   -0.180959
     31          6           0        5.489847   -3.875750   -0.107659
     32          6           0        6.681322   -3.134897   -0.049206
     33          6           0        6.495056   -1.761727   -0.065502
     34         16           0        4.773393   -1.400692   -0.180140
     35          6           0        7.470840   -0.700054   -0.004172
     36          6           0        7.110588    0.645469    0.018098
     37          6           0        8.027128    1.709041    0.075048
     38          6           0        9.404895    1.522915    0.116380
     39          6           0        9.839338    0.149149    0.096587
     40          6           0        8.893835   -0.951326    0.037490
     41          7           0        9.486622   -2.145534    0.026726
     42         16           0       11.103043   -1.887273    0.087207
     43          7           0       11.109838   -0.250030    0.128721
     44          6           0       10.416144    2.547404    0.177016
     45          6           0       10.318038    3.907627    0.206239
     46          6           0        9.086736    4.624554    0.179205
     47          7           0        8.074009    5.181561    0.156275
     48          6           0       11.527344    4.770239    0.270304
     49          8           0       12.682594    4.060852    0.295141
     50          1           0       13.395218    4.714294    0.336154
     51          8           0       11.502773    5.975544    0.297992
     52          1           0       11.429221    2.163911    0.203953
     53          1           0        7.621846    2.710797    0.088106
     54          1           0        6.059098    0.905844   -0.006957
     55          1           0        7.664200   -3.574760    0.016447
     56          1           0        5.457693   -4.956156   -0.073146
     57          1           0       -5.665615   -3.041239    1.185874
     58          1           0       -7.649607   -1.620623    1.198724
     59          6           0       -9.220243    0.201134    0.115168
     60          6           0      -10.139608    0.682707    1.047013
     61          6           0      -11.428031    0.154911    1.127792
     62          6           0      -11.808286   -0.887709    0.279495
     63          6           0      -10.887142   -1.380914   -0.653708
     64          6           0       -9.616649   -0.837159   -0.741459
     65          1           0       -8.917672   -1.217857   -1.476612
     66          1           0      -11.199291   -2.182431   -1.312207
     67          8           0      -13.035193   -1.482953    0.276218
     68          6           0      -14.013089   -1.020418    1.196578
     69          1           0      -13.687246   -1.158105    2.233800
     70          1           0      -14.254822    0.035405    1.029631
     71          1           0      -14.900545   -1.624742    1.016261
     72          1           0      -12.114575    0.557814    1.860159
     73          1           0       -9.849997    1.486332    1.713561
     74          6           0       -6.927688    2.890499    0.786592
     75          6           0       -6.820574    4.268759    0.708116
     76          1           0       -6.152769    4.816060    1.362263
     77          1           0       -6.334436    2.344841    1.510642
     78          1           0       -9.232054    2.385586   -1.645441
     79          1           0       -9.078993    4.830121   -1.775834
     80          1           0       -7.894368    8.161501   -0.918177
     81          1           0       -7.953658    6.873436   -2.146840
     82          1           0       -9.258874    7.016340   -0.932988
 ---------------------------------------------------------------------
 Rotational constants (GHZ):      0.0651937      0.0099802      0.0087139
 Standard basis: 6-311G(d,p) (5D, 7F)
 There are  1226 symmetry adapted cartesian basis functions of A   symmetry.
 There are  1172 symmetry adapted basis functions of A   symmetry.
  1172 basis functions,  2008 primitive gaussians,  1226 cartesian basis functions
   202 alpha electrons      202 beta electrons
       nuclear repulsion energy      6545.1771954336 Hartrees.
 NAtoms=   82 NActive=   82 NUniq=   82 SFac= 1.00D+00 NAtFMM=   60 NAOKFM=T Big=T
 Integral buffers will be    131072 words long.
 Regular integral format.
 Two-electron integral symmetry is turned on.
 One-electron integrals computed using PRISM.
 NBasis=  1172 RedAO= T EigKep=  1.18D-04  NBF=  1172
 NBsUse=  1172 1.00D-06 EigRej= -1.00D+00 NBFU=  1172
 ExpMin= 7.71D-02 ExpMax= 9.34D+04 ExpMxC= 3.17D+03 IAcc=2 IRadAn=         4 AccDes= 0.00D+00
 Harris functional with IExCor=  402 and IRadAn=       4 diagonalized for initial guess.
 HarFok:  IExCor=  402 AccDes= 0.00D+00 IRadAn=         4 IDoV= 1 UseB2=F ITyADJ=14
 ICtDFT=  3500011 ScaDFX=  1.000000  1.000000  1.000000  1.000000
 FoFCou: FMM=F IPFlag=           0 FMFlag=      100000 FMFlg1=        2001
         NFxFlg=           0 DoJE=T BraDBF=F KetDBF=T FulRan=T
         wScrn=  0.000000 ICntrl=     500 IOpCl=  0 I1Cent=   200000004 NGrid=           0
         NMat0=    1 NMatS0=      1 NMatT0=    0 NMatD0=    1 NMtDS0=    0 NMtDT0=    0
 Petite list used in FoFCou.
 Requested convergence on RMS density matrix=1.00D-08 within 128 cycles.
 Requested convergence on MAX density matrix=1.00D-06.
 Requested convergence on             energy=1.00D-06.
 No special actions if energy rises.
 Integral accuracy reduced to 1.0D-05 until final iterations.
 Initial convergence to 1.0D-05 achieved.  Increase integral accuracy.
 SCF Done:  E(RB3LYP) =  -3730.54296709     A.U. after   18 cycles
            NFock= 18  Conv=0.39D-08     -V/T= 2.0028
 DoSCS=F DFT=T ScalE2(SS,OS)=  1.000000  1.000000
 ExpMin= 7.71D-02 ExpMax= 9.34D+04 ExpMxC= 3.17D+03 IAcc=3 IRadAn=         5 AccDes= 0.00D+00
 HarFok:  IExCor=  205 AccDes= 0.00D+00 IRadAn=         5 IDoV=-2 UseB2=F ITyADJ=14
 ICtDFT= 12500011 ScaDFX=  1.000000  1.000000  1.000000  1.000000
 Range of M.O.s used for correlation:    71  1172
 NBasis=  1172 NAE=   202 NBE=   202 NFC=    70 NFV=     0
 NROrb=   1102 NOA=   132 NOB=   132 NVA=   970 NVB=   970

 **** Warning!!: The largest alpha MO coefficient is  0.15844651D+02


 **** Warning!!: The smallest alpha delta epsilon is  0.57186475D-01

 Would need an additional        708583800000 words for in-memory AO integral storage.
 Orbital symmetries:
       Occupied  (A) (A) (A) (A) (A) (A) (A) (A) (A) (A) (A) (A)
                 (A) (A) (A) (A) (A) (A) (A) (A) (A) (A) (A) (A)
                 (A) (A) (A) (A) (A) (A) (A) (A) (A) (A) (A) (A)
                 (A) (A) (A) (A) (A) (A) (A) (A) (A) (A) (A) (A)
                 (A) (A) (A) (A) (A) (A) (A) (A) (A) (A) (A) (A)
                 (A) (A) (A) (A) (A) (A) (A) (A) (A) (A) (A) (A)
                 (A) (A) (A) (A) (A) (A) (A) (A) (A) (A) (A) (A)
                 (A) (A) (A) (A) (A) (A) (A) (A) (A) (A) (A) (A)
                 (A) (A) (A) (A) (A) (A) (A) (A) (A) (A) (A) (A)
                 (A) (A) (A) (A) (A) (A) (A) (A) (A) (A) (A) (A)
                 (A) (A) (A) (A) (A) (A) (A) (A) (A) (A) (A) (A)
                 (A) (A) (A) (A) (A) (A) (A) (A) (A) (A) (A) (A)
                 (A) (A) (A) (A) (A) (A) (A) (A) (A) (A) (A) (A)
                 (A) (A) (A) (A) (A) (A) (A) (A) (A) (A) (A) (A)
                 (A) (A) (A) (A) (A) (A) (A) (A) (A) (A) (A) (A)
                 (A) (A) (A) (A) (A) (A) (A) (A) (A) (A) (A) (A)
                 (A) (A) (A) (A) (A) (A) (A) (A) (A) (A)
       Virtual   (A) (A) (A) (A) (A) (A) (A) (A) (A) (A) (A) (A)
                 (A) (A) (A) (A) (A) (A) (A) (A) (A) (A) (A) (A)
                 (A) (A) (A) (A) (A) (A) (A) (A) (A) (A) (A) (A)
                 (A) (A) (A) (A) (A) (A) (A) (A) (A) (A) (A) (A)
                 (A) (A) (A) (A) (A) (A) (A) (A) (A) (A) (A) (A)
                 (A) (A) (A) (A) (A) (A) (A) (A) (A) (A) (A) (A)
                 (A) (A) (A) (A) (A) (A) (A) (A) (A) (A) (A) (A)
                 (A) (A) (A) (A) (A) (A) (A) (A) (A) (A) (A) (A)
                 (A) (A) (A) (A) (A) (A) (A) (A) (A) (A) (A) (A)
                 (A) (A) (A) (A) (A) (A) (A) (A) (A) (A) (A) (A)
                 (A) (A) (A) (A) (A) (A) (A) (A) (A) (A) (A) (A)
                 (A) (A) (A) (A) (A) (A) (A) (A) (A) (A) (A) (A)
                 (A) (A) (A) (A) (A) (A) (A) (A) (A) (A) (A) (A)
                 (A) (A) (A) (A) (A) (A) (A) (A) (A) (A) (A) (A)
                 (A) (A) (A) (A) (A) (A) (A) (A) (A) (A) (A) (A)
                 (A) (A) (A) (A) (A) (A) (A) (A) (A) (A) (A) (A)
                 (A) (A) (A) (A) (A) (A) (A) (A) (A) (A) (A) (A)
                 (A) (A) (A) (A) (A) (A) (A) (A) (A) (A) (A) (A)
                 (A) (A) (A) (A) (A) (A) (A) (A) (A) (A) (A) (A)
                 (A) (A) (A) (A) (A) (A) (A) (A) (A) (A) (A) (A)
                 (A) (A) (A) (A) (A) (A) (A) (A) (A) (A) (A) (A)
                 (A) (A) (A) (A) (A) (A) (A) (A) (A) (A) (A) (A)
                 (A) (A) (A) (A) (A) (A) (A) (A) (A) (A) (A) (A)
                 (A) (A) (A) (A) (A) (A) (A) (A) (A) (A) (A) (A)
                 (A) (A) (A) (A) (A) (A) (A) (A) (A) (A) (A) (A)
                 (A) (A) (A) (A) (A) (A) (A) (A) (A) (A) (A) (A)
                 (A) (A) (A) (A) (A) (A) (A) (A) (A) (A) (A) (A)
                 (A) (A) (A) (A) (A) (A) (A) (A) (A) (A) (A) (A)
                 (A) (A) (A) (A) (A) (A) (A) (A) (A) (A) (A) (A)
                 (A) (A) (A) (A) (A) (A) (A) (A) (A) (A) (A) (A)
                 (A) (A) (A) (A) (A) (A) (A) (A) (A) (A) (A) (A)
                 (A) (A) (A) (A) (A) (A) (A) (A) (A) (A) (A) (A)
                 (A) (A) (A) (A) (A) (A) (A) (A) (A) (A) (A) (A)
                 (A) (A) (A) (A) (A) (A) (A) (A) (A) (A) (A) (A)
                 (A) (A) (A) (A) (A) (A) (A) (A) (A) (A) (A) (A)
                 (A) (A) (A) (A) (A) (A) (A) (A) (A) (A) (A) (A)
                 (A) (A) (A) (A) (A) (A) (A) (A) (A) (A) (A) (A)
                 (A) (A) (A) (A) (A) (A) (A) (A) (A) (A) (A) (A)
                 (A) (A) (A) (A) (A) (A) (A) (A) (A) (A) (A) (A)
                 (A) (A) (A) (A) (A) (A) (A) (A) (A) (A) (A) (A)
                 (A) (A) (A) (A) (A) (A) (A) (A) (A) (A) (A) (A)
                 (A) (A) (A) (A) (A) (A) (A) (A) (A) (A) (A) (A)
                 (A) (A) (A) (A) (A) (A) (A) (A) (A) (A) (A) (A)
                 (A) (A) (A) (A) (A) (A) (A) (A) (A) (A) (A) (A)
                 (A) (A) (A) (A) (A) (A) (A) (A) (A) (A) (A) (A)
                 (A) (A) (A) (A) (A) (A) (A) (A) (A) (A) (A) (A)
                 (A) (A) (A) (A) (A) (A) (A) (A) (A) (A) (A) (A)
                 (A) (A) (A) (A) (A) (A) (A) (A) (A) (A) (A) (A)
                 (A) (A) (A) (A) (A) (A) (A) (A) (A) (A) (A) (A)
                 (A) (A) (A) (A) (A) (A) (A) (A) (A) (A) (A) (A)
                 (A) (A) (A) (A) (A) (A) (A) (A) (A) (A) (A) (A)
                 (A) (A) (A) (A) (A) (A) (A) (A) (A) (A) (A) (A)
                 (A) (A) (A) (A) (A) (A) (A) (A) (A) (A) (A) (A)
                 (A) (A) (A) (A) (A) (A) (A) (A) (A) (A) (A) (A)
                 (A) (A) (A) (A) (A) (A) (A) (A) (A) (A) (A) (A)
                 (A) (A) (A) (A) (A) (A) (A) (A) (A) (A) (A) (A)
                 (A) (A) (A) (A) (A) (A) (A) (A) (A) (A) (A) (A)
                 (A) (A) (A) (A) (A) (A) (A) (A) (A) (A) (A) (A)
                 (A) (A) (A) (A) (A) (A) (A) (A) (A) (A) (A) (A)
                 (A) (A) (A) (A) (A) (A) (A) (A) (A) (A) (A) (A)
                 (A) (A) (A) (A) (A) (A) (A) (A) (A) (A) (A) (A)
                 (A) (A) (A) (A) (A) (A) (A) (A) (A) (A) (A) (A)
                 (A) (A) (A) (A) (A) (A) (A) (A) (A) (A) (A) (A)
                 (A) (A) (A) (A) (A) (A) (A) (A) (A) (A) (A) (A)
                 (A) (A) (A) (A) (A) (A) (A) (A) (A) (A) (A) (A)
                 (A) (A) (A) (A) (A) (A) (A) (A) (A) (A) (A) (A)
                 (A) (A) (A) (A) (A) (A) (A) (A) (A) (A) (A) (A)
                 (A) (A) (A) (A) (A) (A) (A) (A) (A) (A) (A) (A)
                 (A) (A) (A) (A) (A) (A) (A) (A) (A) (A) (A) (A)
                 (A) (A) (A) (A) (A) (A) (A) (A) (A) (A) (A) (A)
                 (A) (A) (A) (A) (A) (A) (A) (A) (A) (A) (A) (A)
                 (A) (A) (A) (A) (A) (A) (A) (A) (A) (A) (A) (A)
                 (A) (A) (A) (A) (A) (A) (A) (A) (A) (A) (A) (A)
                 (A) (A) (A) (A) (A) (A) (A) (A) (A) (A) (A) (A)
                 (A) (A) (A) (A) (A) (A) (A) (A) (A) (A) (A) (A)
                 (A) (A) (A) (A) (A) (A) (A) (A) (A) (A) (A) (A)
                 (A) (A) (A) (A) (A) (A) (A) (A) (A) (A) (A) (A)
                 (A) (A) (A) (A) (A) (A) (A) (A) (A) (A) (A) (A)
                 (A) (A) (A) (A) (A) (A) (A) (A) (A) (A) (A) (A)
                 (A) (A) (A) (A) (A) (A) (A) (A) (A) (A) (A) (A)
                 (A) (A) (A) (A) (A) (A) (A) (A) (A) (A)
    40 initial guesses have been made.
 Convergence on wavefunction:    0.001000000000000
 Iteration     1 Dimension    40 NMult     0 NNew     40
 CISAX will form    40 AO SS matrices at one time.
 New state      4 was old state      5
 New state      5 was old state      4
 New state      9 was old state     10
 New state     10 was old state     11
 Iteration     2 Dimension    60 NMult    40 NNew     20
 Iteration     3 Dimension    80 NMult    60 NNew     20
 Iteration     4 Dimension   100 NMult    80 NNew     20
 Iteration     5 Dimension   118 NMult   100 NNew     18
 Iteration     6 Dimension   122 NMult   118 NNew      4
 Iteration     7 Dimension   124 NMult   122 NNew      2
 Iteration     8 Dimension   126 NMult   124 NNew      2
 Iteration     9 Dimension   128 NMult   126 NNew      2
 Convergence on energies, max DE= 4.64D-06.
 ***********************************************************************
 Excited states from <AA,BB:AA,BB> singles matrix:
 ***********************************************************************
 
 Ground to excited state transition densities written to RWF  633
 Ground to excited state transition electric dipole moments (Au):
       state          X           Y           Z        Dip. S.      Osc.
         1        -3.0783     -0.4971     -0.0367      9.7242      0.3300
         2         3.3722      1.7308      0.1033     14.3783      0.6904
         3        -3.0507      0.3086      0.0109      9.4019      0.5713
         4         0.2482      0.6921      0.0442      0.5426      0.0344
         5         0.4453     -1.7423     -0.0878      3.2416      0.2168
         6         0.0812      0.1631     -0.0115      0.0333      0.0024
         7         2.0640      0.8047      0.0295      4.9085      0.3620
         8        -0.3055     -0.0659      0.0102      0.0978      0.0075
         9        -1.2859      1.7617      0.0928      4.7656      0.3819
        10         0.5851     -0.6046     -0.0290      0.7087      0.0588
 Ground to excited state transition velocity dipole moments (Au):
       state          X           Y           Z        Dip. S.      Osc.
         1         0.1539      0.0250      0.0021      0.0243      0.3186
         2        -0.2417     -0.1234     -0.0075      0.0737      0.6823
         3         0.2756     -0.0271     -0.0003      0.0767      0.5609
         4        -0.0289     -0.0663     -0.0041      0.0052      0.0368
         5        -0.0438      0.1744      0.0083      0.0324      0.2154
         6        -0.0088     -0.0173      0.0012      0.0004      0.0023
         7        -0.2234     -0.0879     -0.0032      0.0576      0.3472
         8         0.0381      0.0092     -0.0004      0.0015      0.0089
         9         0.1565     -0.2125     -0.0114      0.0698      0.3869
        10        -0.0723      0.0754      0.0045      0.0109      0.0585
 Ground to excited state transition magnetic dipole moments (Au):
       state          X           Y           Z
         1         0.0129     -0.0950      1.7799
         2        -0.0022      0.1881     -3.2199
         3         0.0514     -0.1463      3.2709
         4         0.0090      0.0446     -0.6939
         5        -0.0474     -0.0531      0.7087
         6         0.0037      0.0240      0.0278
         7         0.0008      0.1885     -3.2648
         8        -0.0219     -0.0150      0.6444
         9         0.0917     -0.0433     -0.1860
        10        -0.0513      0.0483     -1.2547
 Ground to excited state transition velocity quadrupole moments (Au):
       state          XX          YY          ZZ          XY          XZ          YZ
         1         0.9112     -0.0148     -0.0128      0.4282      0.0381      0.0130
         2        -3.6166      0.0207      0.0178     -1.2893     -0.1010     -0.0038
         3        -1.0835      0.2424     -0.0301      0.8341      0.0453      0.0657
         4        -1.7671     -0.0877      0.0071     -0.9819     -0.0583      0.0053
         5         3.9144      0.2457      0.0053      1.7847      0.0926     -0.0266
         6         0.0636     -0.1202      0.0009      0.0231     -0.0410      0.0093
         7        -2.2102     -0.2746      0.0174     -0.7849     -0.0708     -0.0313
         8         0.3355      0.2687     -0.0066      0.0252      0.0079      0.0214
         9        -3.6716     -0.6491     -0.0175     -2.5973     -0.0772      0.0287
        10         3.6581     -0.6156      0.0396     -2.0959     -0.1337     -0.0687
 <0|del|b> * <b|rxdel|0> + <0|del|b> * <b|delr+rdel|0>
 Rotatory Strengths (R) in cgs (10**-40 erg-esu-cm/Gauss)
       state          XX          YY          ZZ    R(velocity)    E-M Angle
         1         8.6041     47.1572    -10.0156     15.2486       89.32
         2        -9.3154     78.1410    -54.7249      4.7002       89.91
         3        14.6080    121.9871     -4.6538     43.9804       88.93
         4         0.2768     -5.9480      2.9685     -0.9009       90.41
         5       -16.8928    -19.9466     27.4706     -3.1230       90.59
         6        -3.4763     -0.3550      1.1248     -0.9021      125.35
         7       -31.1287     47.2847    -55.9637    -13.2692       90.45
         8        -1.4160     -0.7759     -5.2945     -2.4955       92.75
         9        72.0661    -25.4179    104.3022     50.3168       62.70
        10        -3.8288     35.3721    -21.8521      3.2304       89.26
 1/2[<0|r|b>*<b|rxdel|0> + (<0|rxdel|b>*<b|r|0>)*]
 Rotatory Strengths (R) in cgs (10**-40 erg-esu-cm/Gauss)
       state          XX          YY          ZZ     R(length)
         1        28.1025    -33.4077     46.2161     13.6370
         2         5.2312   -230.2790    235.1453      3.3658
         3       110.9858     31.9149    -25.3162     39.1948
         4        -1.5853    -21.8465     21.6777     -0.5847
         5        14.9182    -65.4329     43.9930     -2.1739
         6        -0.2113     -2.7656      0.2254     -0.9172
         7        -1.1736   -107.2678     68.2172    -13.4081
         8        -4.7422     -0.6975     -4.6350     -3.3582
         9        83.3619     53.8917     12.2038     49.8192
        10        21.2118     20.6448    -25.7032      5.3845
  1/2[<0|del|b>*<b|r|0> + (<0|r|b>*<b|del|0>)*] (Au)
       state          X           Y           Z        Dip. S.   Osc.(frdel)
         1        -0.4739     -0.0124     -0.0001      0.4864      0.3243
         2        -0.8150     -0.2137     -0.0008      1.0295      0.6863
         3        -0.8407     -0.0084      0.0000      0.8491      0.5661
         4        -0.0072     -0.0459     -0.0002      0.0532      0.0355
         5        -0.0195     -0.3039     -0.0007      0.3241      0.2161
         6        -0.0007     -0.0028      0.0000      0.0035      0.0024
         7        -0.4610     -0.0707     -0.0001      0.5318      0.3545
         8        -0.0116     -0.0006      0.0000      0.0122      0.0082
         9        -0.2013     -0.3743     -0.0011      0.5766      0.3844
        10        -0.0423     -0.0456     -0.0001      0.0880      0.0587

 Excitation energies and oscillator strengths:
 
 Excited State   1:      Singlet-A      1.3851 eV  895.13 nm  f=0.3300  <S**2>=0.000
     202 -> 203        0.70693
 This state for optimization and/or second-order correction.
 Total Energy, E(TD-HF/TD-KS) =  -3730.49206556    
 Copying the excited state density for this state as the 1-particle RhoCI density.
 
 Excited State   2:      Singlet-A      1.9598 eV  632.65 nm  f=0.6904  <S**2>=0.000
     201 -> 203        0.69986
 
 Excited State   3:      Singlet-A      2.4802 eV  499.90 nm  f=0.5713  <S**2>=0.000
     200 -> 203       -0.23296
     202 -> 204        0.62755
     202 -> 205       -0.19769
 
 Excited State   4:      Singlet-A      2.5891 eV  478.88 nm  f=0.0344  <S**2>=0.000
     200 -> 203        0.52667
     201 -> 205       -0.14039
     202 -> 204        0.29674
     202 -> 205        0.32730
 
 Excited State   5:      Singlet-A      2.7297 eV  454.21 nm  f=0.2168  <S**2>=0.000
     200 -> 203       -0.37478
     202 -> 205        0.58527
 
 Excited State   6:      Singlet-A      2.9501 eV  420.28 nm  f=0.0024  <S**2>=0.000
     199 -> 203        0.70580
 
 Excited State   7:      Singlet-A      3.0105 eV  411.84 nm  f=0.3620  <S**2>=0.000
     201 -> 204        0.67953
 
 Excited State   8:      Singlet-A      3.1142 eV  398.13 nm  f=0.0075  <S**2>=0.000
     198 -> 203        0.57821
     200 -> 203        0.10530
     201 -> 205        0.36102
 
 Excited State   9:      Singlet-A      3.2708 eV  379.06 nm  f=0.3819  <S**2>=0.000
     198 -> 203       -0.30765
     201 -> 205        0.49305
     202 -> 206       -0.35617
 
 Excited State  10:      Singlet-A      3.3869 eV  366.07 nm  f=0.0588  <S**2>=0.000
     192 -> 203       -0.11908
     194 -> 203       -0.22643
     196 -> 203       -0.15010
     197 -> 203       -0.10902
     198 -> 203       -0.16001
     201 -> 205        0.21641
     202 -> 206        0.53496
 SavETr:  write IOETrn=   770 NScale= 10 NData=  16 NLR=1 NState=   10 LETran=     190.

 **********************************************************************

            Population analysis using the SCF density.

 **********************************************************************

 Orbital symmetries:
       Occupied  (A) (A) (A) (A) (A) (A) (A) (A) (A) (A) (A) (A)
                 (A) (A) (A) (A) (A) (A) (A) (A) (A) (A) (A) (A)
                 (A) (A) (A) (A) (A) (A) (A) (A) (A) (A) (A) (A)
                 (A) (A) (A) (A) (A) (A) (A) (A) (A) (A) (A) (A)
                 (A) (A) (A) (A) (A) (A) (A) (A) (A) (A) (A) (A)
                 (A) (A) (A) (A) (A) (A) (A) (A) (A) (A) (A) (A)
                 (A) (A) (A) (A) (A) (A) (A) (A) (A) (A) (A) (A)
                 (A) (A) (A) (A) (A) (A) (A) (A) (A) (A) (A) (A)
                 (A) (A) (A) (A) (A) (A) (A) (A) (A) (A) (A) (A)
                 (A) (A) (A) (A) (A) (A) (A) (A) (A) (A) (A) (A)
                 (A) (A) (A) (A) (A) (A) (A) (A) (A) (A) (A) (A)
                 (A) (A) (A) (A) (A) (A) (A) (A) (A) (A) (A) (A)
                 (A) (A) (A) (A) (A) (A) (A) (A) (A) (A) (A) (A)
                 (A) (A) (A) (A) (A) (A) (A) (A) (A) (A) (A) (A)
                 (A) (A) (A) (A) (A) (A) (A) (A) (A) (A) (A) (A)
                 (A) (A) (A) (A) (A) (A) (A) (A) (A) (A) (A) (A)
                 (A) (A) (A) (A) (A) (A) (A) (A) (A) (A)
       Virtual   (A) (A) (A) (A) (A) (A) (A) (A) (A) (A) (A) (A)
                 (A) (A) (A) (A) (A) (A) (A) (A) (A) (A) (A) (A)
                 (A) (A) (A) (A) (A) (A) (A) (A) (A) (A) (A) (A)
                 (A) (A) (A) (A) (A) (A) (A) (A) (A) (A) (A) (A)
                 (A) (A) (A) (A) (A) (A) (A) (A) (A) (A) (A) (A)
                 (A) (A) (A) (A) (A) (A) (A) (A) (A) (A) (A) (A)
                 (A) (A) (A) (A) (A) (A) (A) (A) (A) (A) (A) (A)
                 (A) (A) (A) (A) (A) (A) (A) (A) (A) (A) (A) (A)
                 (A) (A) (A) (A) (A) (A) (A) (A) (A) (A) (A) (A)
                 (A) (A) (A) (A) (A) (A) (A) (A) (A) (A) (A) (A)
                 (A) (A) (A) (A) (A) (A) (A) (A) (A) (A) (A) (A)
                 (A) (A) (A) (A) (A) (A) (A) (A) (A) (A) (A) (A)
                 (A) (A) (A) (A) (A) (A) (A) (A) (A) (A) (A) (A)
                 (A) (A) (A) (A) (A) (A) (A) (A) (A) (A) (A) (A)
                 (A) (A) (A) (A) (A) (A) (A) (A) (A) (A) (A) (A)
                 (A) (A) (A) (A) (A) (A) (A) (A) (A) (A) (A) (A)
                 (A) (A) (A) (A) (A) (A) (A) (A) (A) (A) (A) (A)
                 (A) (A) (A) (A) (A) (A) (A) (A) (A) (A) (A) (A)
                 (A) (A) (A) (A) (A) (A) (A) (A) (A) (A) (A) (A)
                 (A) (A) (A) (A) (A) (A) (A) (A) (A) (A) (A) (A)
                 (A) (A) (A) (A) (A) (A) (A) (A) (A) (A) (A) (A)
                 (A) (A) (A) (A) (A) (A) (A) (A) (A) (A) (A) (A)
                 (A) (A) (A) (A) (A) (A) (A) (A) (A) (A) (A) (A)
                 (A) (A) (A) (A) (A) (A) (A) (A) (A) (A) (A) (A)
                 (A) (A) (A) (A) (A) (A) (A) (A) (A) (A) (A) (A)
                 (A) (A) (A) (A) (A) (A) (A) (A) (A) (A) (A) (A)
                 (A) (A) (A) (A) (A) (A) (A) (A) (A) (A) (A) (A)
                 (A) (A) (A) (A) (A) (A) (A) (A) (A) (A) (A) (A)
                 (A) (A) (A) (A) (A) (A) (A) (A) (A) (A) (A) (A)
                 (A) (A) (A) (A) (A) (A) (A) (A) (A) (A) (A) (A)
                 (A) (A) (A) (A) (A) (A) (A) (A) (A) (A) (A) (A)
                 (A) (A) (A) (A) (A) (A) (A) (A) (A) (A) (A) (A)
                 (A) (A) (A) (A) (A) (A) (A) (A) (A) (A) (A) (A)
                 (A) (A) (A) (A) (A) (A) (A) (A) (A) (A) (A) (A)
                 (A) (A) (A) (A) (A) (A) (A) (A) (A) (A) (A) (A)
                 (A) (A) (A) (A) (A) (A) (A) (A) (A) (A) (A) (A)
                 (A) (A) (A) (A) (A) (A) (A) (A) (A) (A) (A) (A)
                 (A) (A) (A) (A) (A) (A) (A) (A) (A) (A) (A) (A)
                 (A) (A) (A) (A) (A) (A) (A) (A) (A) (A) (A) (A)
                 (A) (A) (A) (A) (A) (A) (A) (A) (A) (A) (A) (A)
                 (A) (A) (A) (A) (A) (A) (A) (A) (A) (A) (A) (A)
                 (A) (A) (A) (A) (A) (A) (A) (A) (A) (A) (A) (A)
                 (A) (A) (A) (A) (A) (A) (A) (A) (A) (A) (A) (A)
                 (A) (A) (A) (A) (A) (A) (A) (A) (A) (A) (A) (A)
                 (A) (A) (A) (A) (A) (A) (A) (A) (A) (A) (A) (A)
                 (A) (A) (A) (A) (A) (A) (A) (A) (A) (A) (A) (A)
                 (A) (A) (A) (A) (A) (A) (A) (A) (A) (A) (A) (A)
                 (A) (A) (A) (A) (A) (A) (A) (A) (A) (A) (A) (A)
                 (A) (A) (A) (A) (A) (A) (A) (A) (A) (A) (A) (A)
                 (A) (A) (A) (A) (A) (A) (A) (A) (A) (A) (A) (A)
                 (A) (A) (A) (A) (A) (A) (A) (A) (A) (A) (A) (A)
                 (A) (A) (A) (A) (A) (A) (A) (A) (A) (A) (A) (A)
                 (A) (A) (A) (A) (A) (A) (A) (A) (A) (A) (A) (A)
                 (A) (A) (A) (A) (A) (A) (A) (A) (A) (A) (A) (A)
                 (A) (A) (A) (A) (A) (A) (A) (A) (A) (A) (A) (A)
                 (A) (A) (A) (A) (A) (A) (A) (A) (A) (A) (A) (A)
                 (A) (A) (A) (A) (A) (A) (A) (A) (A) (A) (A) (A)
                 (A) (A) (A) (A) (A) (A) (A) (A) (A) (A) (A) (A)
                 (A) (A) (A) (A) (A) (A) (A) (A) (A) (A) (A) (A)
                 (A) (A) (A) (A) (A) (A) (A) (A) (A) (A) (A) (A)
                 (A) (A) (A) (A) (A) (A) (A) (A) (A) (A) (A) (A)
                 (A) (A) (A) (A) (A) (A) (A) (A) (A) (A) (A) (A)
                 (A) (A) (A) (A) (A) (A) (A) (A) (A) (A) (A) (A)
                 (A) (A) (A) (A) (A) (A) (A) (A) (A) (A) (A) (A)
                 (A) (A) (A) (A) (A) (A) (A) (A) (A) (A) (A) (A)
                 (A) (A) (A) (A) (A) (A) (A) (A) (A) (A) (A) (A)
                 (A) (A) (A) (A) (A) (A) (A) (A) (A) (A) (A) (A)
                 (A) (A) (A) (A) (A) (A) (A) (A) (A) (A) (A) (A)
                 (A) (A) (A) (A) (A) (A) (A) (A) (A) (A) (A) (A)
                 (A) (A) (A) (A) (A) (A) (A) (A) (A) (A) (A) (A)
                 (A) (A) (A) (A) (A) (A) (A) (A) (A) (A) (A) (A)
                 (A) (A) (A) (A) (A) (A) (A) (A) (A) (A) (A) (A)
                 (A) (A) (A) (A) (A) (A) (A) (A) (A) (A) (A) (A)
                 (A) (A) (A) (A) (A) (A) (A) (A) (A) (A) (A) (A)
                 (A) (A) (A) (A) (A) (A) (A) (A) (A) (A) (A) (A)
                 (A) (A) (A) (A) (A) (A) (A) (A) (A) (A) (A) (A)
                 (A) (A) (A) (A) (A) (A) (A) (A) (A) (A) (A) (A)
                 (A) (A) (A) (A) (A) (A) (A) (A) (A) (A) (A) (A)
                 (A) (A) (A) (A) (A) (A) (A) (A) (A) (A) (A) (A)
                 (A) (A) (A) (A) (A) (A) (A) (A) (A) (A) (A) (A)
                 (A) (A) (A) (A) (A) (A) (A) (A) (A) (A)
 The electronic state is 1-A.
 Alpha  occ. eigenvalues --  -88.95137 -88.89102 -88.89021 -88.88152 -19.17129
 Alpha  occ. eigenvalues --  -19.15673 -19.15552 -19.11215 -14.36382 -14.36141
 Alpha  occ. eigenvalues --  -14.34805 -14.30909 -10.31379 -10.24826 -10.24600
 Alpha  occ. eigenvalues --  -10.24000 -10.23906 -10.23661 -10.23253 -10.23115
 Alpha  occ. eigenvalues --  -10.23114 -10.23037 -10.22840 -10.22707 -10.22661
 Alpha  occ. eigenvalues --  -10.22372 -10.22079 -10.22071 -10.21689 -10.21546
 Alpha  occ. eigenvalues --  -10.21473 -10.21448 -10.20887 -10.20720 -10.20324
 Alpha  occ. eigenvalues --  -10.19502 -10.19334 -10.19262 -10.19095 -10.19094
 Alpha  occ. eigenvalues --  -10.18690 -10.18243 -10.18216 -10.18183 -10.18177
 Alpha  occ. eigenvalues --  -10.18163 -10.18144 -10.18131 -10.18126 -10.18043
 Alpha  occ. eigenvalues --  -10.17794 -10.17682 -10.17585 -10.17551  -8.03396
 Alpha  occ. eigenvalues --   -7.97759  -7.97665  -7.96800  -5.99810  -5.99229
 Alpha  occ. eigenvalues --   -5.99001  -5.94067  -5.93972  -5.93693  -5.93598
 Alpha  occ. eigenvalues --   -5.93316  -5.93224  -5.93102  -5.92731  -5.92368
 Alpha  occ. eigenvalues --   -1.11729  -1.07534  -1.07423  -1.04149  -1.02698
 Alpha  occ. eigenvalues --   -0.97277  -0.91965  -0.91484  -0.91194  -0.90389
 Alpha  occ. eigenvalues --   -0.89100  -0.88089  -0.86643  -0.86570  -0.84786
 Alpha  occ. eigenvalues --   -0.84027  -0.80633  -0.79120  -0.78446  -0.77487
 Alpha  occ. eigenvalues --   -0.77324  -0.76504  -0.76239  -0.76115  -0.75607
 Alpha  occ. eigenvalues --   -0.75029  -0.74832  -0.74048  -0.73489  -0.71226
 Alpha  occ. eigenvalues --   -0.70935  -0.69360  -0.68160  -0.66131  -0.65188
 Alpha  occ. eigenvalues --   -0.64140  -0.63634  -0.63359  -0.62599  -0.62181
 Alpha  occ. eigenvalues --   -0.61783  -0.60635  -0.60137  -0.59732  -0.58333
 Alpha  occ. eigenvalues --   -0.56948  -0.56109  -0.55108  -0.54970  -0.54834
 Alpha  occ. eigenvalues --   -0.54529  -0.53944  -0.53388  -0.53087  -0.53077
 Alpha  occ. eigenvalues --   -0.52245  -0.51226  -0.50273  -0.50060  -0.49898
 Alpha  occ. eigenvalues --   -0.48990  -0.48706  -0.48127  -0.47921  -0.47797
 Alpha  occ. eigenvalues --   -0.47447  -0.46634  -0.46279  -0.46267  -0.45907
 Alpha  occ. eigenvalues --   -0.45705  -0.45299  -0.44357  -0.43846  -0.43728
 Alpha  occ. eigenvalues --   -0.43423  -0.43300  -0.43125  -0.42947  -0.42708
 Alpha  occ. eigenvalues --   -0.42514  -0.42411  -0.42013  -0.41548  -0.41358
 Alpha  occ. eigenvalues --   -0.41173  -0.40611  -0.40285  -0.39891  -0.39684
 Alpha  occ. eigenvalues --   -0.39524  -0.39321  -0.39109  -0.39033  -0.39004
 Alpha  occ. eigenvalues --   -0.38393  -0.38067  -0.37857  -0.37407  -0.37077
 Alpha  occ. eigenvalues --   -0.36898  -0.36730  -0.36399  -0.35991  -0.35752
 Alpha  occ. eigenvalues --   -0.35292  -0.34460  -0.34189  -0.34000  -0.33866
 Alpha  occ. eigenvalues --   -0.33716  -0.33545  -0.33242  -0.32968  -0.31819
 Alpha  occ. eigenvalues --   -0.31667  -0.30806  -0.29466  -0.28965  -0.28644
 Alpha  occ. eigenvalues --   -0.27631  -0.27249  -0.27101  -0.26972  -0.26471
 Alpha  occ. eigenvalues --   -0.26384  -0.26062  -0.25021  -0.23942  -0.22955
 Alpha  occ. eigenvalues --   -0.20345  -0.18205
 Alpha virt. eigenvalues --   -0.12487  -0.08036  -0.07575  -0.04696  -0.03192
 Alpha virt. eigenvalues --   -0.02369  -0.01855  -0.01424  -0.01307  -0.01041
 Alpha virt. eigenvalues --   -0.00832  -0.00659   0.00131   0.01503   0.01634
 Alpha virt. eigenvalues --    0.01989   0.02140   0.02660   0.03604   0.04042
 Alpha virt. eigenvalues --    0.04070   0.04210   0.04461   0.04533   0.04549
 Alpha virt. eigenvalues --    0.05141   0.05431   0.05720   0.06318   0.06408
 Alpha virt. eigenvalues --    0.06837   0.07325   0.07418   0.07787   0.08002
 Alpha virt. eigenvalues --    0.08479   0.08611   0.09283   0.09760   0.10099
 Alpha virt. eigenvalues --    0.10162   0.10276   0.10550   0.10609   0.10681
 Alpha virt. eigenvalues --    0.11081   0.11343   0.12049   0.12143   0.12518
 Alpha virt. eigenvalues --    0.12931   0.13265   0.13510   0.13588   0.13611
 Alpha virt. eigenvalues --    0.13987   0.14431   0.14610   0.15031   0.15223
 Alpha virt. eigenvalues --    0.15589   0.15849   0.16661   0.16866   0.17269
 Alpha virt. eigenvalues --    0.17459   0.17721   0.18131   0.18614   0.18730
 Alpha virt. eigenvalues --    0.19844   0.20354   0.20785   0.20843   0.21031
 Alpha virt. eigenvalues --    0.21281   0.22263   0.22970   0.23032   0.23156
 Alpha virt. eigenvalues --    0.23439   0.23578   0.23847   0.24062   0.24899
 Alpha virt. eigenvalues --    0.25222   0.25769   0.25960   0.26368   0.27472
 Alpha virt. eigenvalues --    0.28058   0.28342   0.28490   0.29048   0.29418
 Alpha virt. eigenvalues --    0.30090   0.30239   0.30372   0.30660   0.30930
 Alpha virt. eigenvalues --    0.31069   0.31230   0.31350   0.31599   0.31940
 Alpha virt. eigenvalues --    0.32277   0.32395   0.32880   0.33151   0.33550
 Alpha virt. eigenvalues --    0.33840   0.34377   0.34724   0.34991   0.35586
 Alpha virt. eigenvalues --    0.35784   0.36063   0.36256   0.36570   0.36787
 Alpha virt. eigenvalues --    0.37132   0.37468   0.37638   0.37731   0.37904
 Alpha virt. eigenvalues --    0.37973   0.38174   0.38524   0.38633   0.38982
 Alpha virt. eigenvalues --    0.39175   0.39191   0.39446   0.39702   0.39769
 Alpha virt. eigenvalues --    0.39896   0.40242   0.40314   0.40508   0.40672
 Alpha virt. eigenvalues --    0.40803   0.41020   0.41192   0.41292   0.41353
 Alpha virt. eigenvalues --    0.41537   0.41775   0.42279   0.42531   0.42609
 Alpha virt. eigenvalues --    0.42853   0.43155   0.43436   0.43461   0.43806
 Alpha virt. eigenvalues --    0.44063   0.44398   0.44524   0.44595   0.44780
 Alpha virt. eigenvalues --    0.44960   0.45605   0.45916   0.46200   0.46439
 Alpha virt. eigenvalues --    0.46807   0.47134   0.47625   0.47845   0.48099
 Alpha virt. eigenvalues --    0.48266   0.48751   0.48981   0.49258   0.49435
 Alpha virt. eigenvalues --    0.49502   0.50388   0.50532   0.50793   0.50934
 Alpha virt. eigenvalues --    0.50978   0.51012   0.51218   0.51665   0.51924
 Alpha virt. eigenvalues --    0.51999   0.52487   0.52678   0.53034   0.53548
 Alpha virt. eigenvalues --    0.53908   0.54228   0.54520   0.54761   0.54833
 Alpha virt. eigenvalues --    0.55055   0.55358   0.55742   0.56462   0.56668
 Alpha virt. eigenvalues --    0.57041   0.57342   0.57501   0.57814   0.58167
 Alpha virt. eigenvalues --    0.58218   0.58372   0.58535   0.58820   0.58887
 Alpha virt. eigenvalues --    0.59053   0.59348   0.59772   0.59919   0.60484
 Alpha virt. eigenvalues --    0.60777   0.60859   0.61150   0.61327   0.61588
 Alpha virt. eigenvalues --    0.61757   0.61839   0.62173   0.62357   0.62693
 Alpha virt. eigenvalues --    0.63028   0.63574   0.63748   0.63873   0.64111
 Alpha virt. eigenvalues --    0.64157   0.64732   0.64912   0.64990   0.65663
 Alpha virt. eigenvalues --    0.65835   0.66009   0.66497   0.66620   0.66856
 Alpha virt. eigenvalues --    0.66933   0.67056   0.67262   0.67517   0.67869
 Alpha virt. eigenvalues --    0.68234   0.68712   0.68876   0.69207   0.70049
 Alpha virt. eigenvalues --    0.70217   0.70493   0.70561   0.70866   0.71099
 Alpha virt. eigenvalues --    0.71941   0.72580   0.72737   0.73388   0.73835
 Alpha virt. eigenvalues --    0.74234   0.74247   0.75038   0.75211   0.75726
 Alpha virt. eigenvalues --    0.76293   0.76698   0.77101   0.77722   0.77860
 Alpha virt. eigenvalues --    0.78155   0.78362   0.78693   0.78867   0.78951
 Alpha virt. eigenvalues --    0.79016   0.79069   0.79573   0.79824   0.80502
 Alpha virt. eigenvalues --    0.80725   0.80922   0.80947   0.81278   0.81680
 Alpha virt. eigenvalues --    0.81813   0.81924   0.82237   0.82623   0.82722
 Alpha virt. eigenvalues --    0.82914   0.83715   0.83924   0.83985   0.84321
 Alpha virt. eigenvalues --    0.84660   0.85257   0.85512   0.85751   0.86375
 Alpha virt. eigenvalues --    0.86862   0.87118   0.87197   0.87561   0.87869
 Alpha virt. eigenvalues --    0.87985   0.88327   0.88852   0.89162   0.89404
 Alpha virt. eigenvalues --    0.89790   0.90184   0.90583   0.90927   0.91166
 Alpha virt. eigenvalues --    0.91330   0.91895   0.91985   0.92405   0.92665
 Alpha virt. eigenvalues --    0.92862   0.93798   0.94157   0.94768   0.94860
 Alpha virt. eigenvalues --    0.95314   0.95531   0.95754   0.95998   0.96207
 Alpha virt. eigenvalues --    0.96447   0.97398   0.97583   0.97839   0.98206
 Alpha virt. eigenvalues --    0.98373   0.98744   0.99061   0.99363   1.00372
 Alpha virt. eigenvalues --    1.00709   1.01311   1.01997   1.02283   1.02486
 Alpha virt. eigenvalues --    1.02696   1.03143   1.03477   1.03739   1.03877
 Alpha virt. eigenvalues --    1.04144   1.04339   1.04475   1.05027   1.05487
 Alpha virt. eigenvalues --    1.06117   1.06714   1.06908   1.07335   1.07487
 Alpha virt. eigenvalues --    1.07957   1.08211   1.08750   1.08995   1.09506
 Alpha virt. eigenvalues --    1.10008   1.10187   1.10935   1.11544   1.11936
 Alpha virt. eigenvalues --    1.12052   1.12267   1.12739   1.12790   1.13243
 Alpha virt. eigenvalues --    1.13601   1.14842   1.15037   1.15860   1.16023
 Alpha virt. eigenvalues --    1.16560   1.16915   1.18467   1.19420   1.20319
 Alpha virt. eigenvalues --    1.20777   1.22124   1.22365   1.23079   1.23353
 Alpha virt. eigenvalues --    1.23745   1.24316   1.24478   1.24563   1.25087
 Alpha virt. eigenvalues --    1.26070   1.26451   1.26853   1.27936   1.28087
 Alpha virt. eigenvalues --    1.28457   1.29155   1.29509   1.31349   1.32300
 Alpha virt. eigenvalues --    1.32889   1.33023   1.34183   1.34776   1.35002
 Alpha virt. eigenvalues --    1.35710   1.36245   1.36666   1.37035   1.38547
 Alpha virt. eigenvalues --    1.39183   1.39265   1.39628   1.40353   1.40672
 Alpha virt. eigenvalues --    1.41631   1.42408   1.42486   1.42591   1.42822
 Alpha virt. eigenvalues --    1.43425   1.44064   1.44077   1.45193   1.45453
 Alpha virt. eigenvalues --    1.45725   1.45914   1.46438   1.46471   1.46695
 Alpha virt. eigenvalues --    1.47150   1.47320   1.47594   1.47827   1.48297
 Alpha virt. eigenvalues --    1.48594   1.48734   1.49039   1.50040   1.50481
 Alpha virt. eigenvalues --    1.51017   1.51337   1.51991   1.52568   1.52668
 Alpha virt. eigenvalues --    1.53010   1.53626   1.53810   1.54006   1.54168
 Alpha virt. eigenvalues --    1.54463   1.54612   1.55449   1.55688   1.55770
 Alpha virt. eigenvalues --    1.56166   1.56412   1.56811   1.57121   1.57412
 Alpha virt. eigenvalues --    1.57821   1.57997   1.58406   1.58516   1.58528
 Alpha virt. eigenvalues --    1.58775   1.58880   1.59428   1.59766   1.60144
 Alpha virt. eigenvalues --    1.60382   1.60897   1.61209   1.61543   1.61623
 Alpha virt. eigenvalues --    1.62063   1.63253   1.64063   1.64532   1.65122
 Alpha virt. eigenvalues --    1.65745   1.65935   1.66207   1.66363   1.66668
 Alpha virt. eigenvalues --    1.66788   1.67180   1.67457   1.68059   1.68413
 Alpha virt. eigenvalues --    1.69120   1.69267   1.69392   1.69572   1.69996
 Alpha virt. eigenvalues --    1.70746   1.71136   1.72020   1.72573   1.72663
 Alpha virt. eigenvalues --    1.72803   1.73250   1.73326   1.73572   1.74042
 Alpha virt. eigenvalues --    1.74258   1.74631   1.75459   1.76106   1.76231
 Alpha virt. eigenvalues --    1.76857   1.76885   1.77135   1.77459   1.77630
 Alpha virt. eigenvalues --    1.78135   1.78625   1.79544   1.80059   1.80952
 Alpha virt. eigenvalues --    1.81323   1.82368   1.82588   1.83046   1.83511
 Alpha virt. eigenvalues --    1.84285   1.84499   1.84882   1.85021   1.85249
 Alpha virt. eigenvalues --    1.85477   1.85750   1.85983   1.87074   1.87311
 Alpha virt. eigenvalues --    1.87568   1.88189   1.88713   1.89380   1.89716
 Alpha virt. eigenvalues --    1.89950   1.90307   1.90503   1.91064   1.91583
 Alpha virt. eigenvalues --    1.91663   1.91672   1.92701   1.93018   1.93158
 Alpha virt. eigenvalues --    1.93590   1.93744   1.93964   1.94602   1.94848
 Alpha virt. eigenvalues --    1.95664   1.95888   1.96083   1.96418   1.96918
 Alpha virt. eigenvalues --    1.97541   1.98134   1.98289   1.98912   1.99634
 Alpha virt. eigenvalues --    1.99870   2.00038   2.00524   2.00779   2.00918
 Alpha virt. eigenvalues --    2.01523   2.01642   2.02389   2.02472   2.02765
 Alpha virt. eigenvalues --    2.03922   2.04568   2.04849   2.04972   2.05919
 Alpha virt. eigenvalues --    2.06356   2.06576   2.06974   2.07435   2.07904
 Alpha virt. eigenvalues --    2.08195   2.08235   2.08759   2.09203   2.09936
 Alpha virt. eigenvalues --    2.10040   2.10717   2.11058   2.11342   2.11636
 Alpha virt. eigenvalues --    2.12265   2.12401   2.12837   2.14563   2.15509
 Alpha virt. eigenvalues --    2.17211   2.17593   2.18263   2.18587   2.19447
 Alpha virt. eigenvalues --    2.20078   2.20640   2.21254   2.21801   2.22280
 Alpha virt. eigenvalues --    2.22791   2.24333   2.25617   2.26778   2.27092
 Alpha virt. eigenvalues --    2.27668   2.27900   2.28678   2.29187   2.29811
 Alpha virt. eigenvalues --    2.30949   2.31000   2.31221   2.31805   2.31988
 Alpha virt. eigenvalues --    2.32964   2.33287   2.33619   2.33807   2.34727
 Alpha virt. eigenvalues --    2.35019   2.35140   2.36068   2.36840   2.38105
 Alpha virt. eigenvalues --    2.38648   2.39274   2.39462   2.39697   2.39931
 Alpha virt. eigenvalues --    2.40778   2.41614   2.41922   2.43668   2.43803
 Alpha virt. eigenvalues --    2.44309   2.45094   2.46436   2.46521   2.47914
 Alpha virt. eigenvalues --    2.48302   2.48528   2.49472   2.49658   2.51056
 Alpha virt. eigenvalues --    2.51422   2.51897   2.52603   2.53815   2.54317
 Alpha virt. eigenvalues --    2.54562   2.54750   2.55118   2.55504   2.57327
 Alpha virt. eigenvalues --    2.57512   2.58053   2.58257   2.58334   2.59425
 Alpha virt. eigenvalues --    2.59785   2.59868   2.60045   2.60269   2.60643
 Alpha virt. eigenvalues --    2.61172   2.61443   2.61946   2.62086   2.62439
 Alpha virt. eigenvalues --    2.62499   2.62936   2.63189   2.63312   2.63876
 Alpha virt. eigenvalues --    2.64452   2.64895   2.65355   2.65820   2.66015
 Alpha virt. eigenvalues --    2.66197   2.66308   2.67054   2.67171   2.67367
 Alpha virt. eigenvalues --    2.67704   2.68342   2.68647   2.68839   2.69229
 Alpha virt. eigenvalues --    2.69547   2.70174   2.70218   2.70334   2.70684
 Alpha virt. eigenvalues --    2.70996   2.71401   2.71738   2.71965   2.73293
 Alpha virt. eigenvalues --    2.73423   2.73936   2.74710   2.75340   2.75720
 Alpha virt. eigenvalues --    2.76055   2.76667   2.77465   2.77950   2.78897
 Alpha virt. eigenvalues --    2.79274   2.80261   2.80786   2.81634   2.82211
 Alpha virt. eigenvalues --    2.82894   2.83729   2.83754   2.83971   2.84296
 Alpha virt. eigenvalues --    2.85959   2.86368   2.86662   2.86781   2.87259
 Alpha virt. eigenvalues --    2.87548   2.87696   2.88743   2.89081   2.90589
 Alpha virt. eigenvalues --    2.91173   2.92155   2.92346   2.92672   2.93014
 Alpha virt. eigenvalues --    2.93638   2.93897   2.94420   2.94939   2.95834
 Alpha virt. eigenvalues --    2.96222   2.97907   2.98433   2.99100   3.00650
 Alpha virt. eigenvalues --    3.00884   3.01852   3.02115   3.02159   3.02923
 Alpha virt. eigenvalues --    3.03498   3.03627   3.04752   3.05237   3.06745
 Alpha virt. eigenvalues --    3.06896   3.07040   3.07238   3.09212   3.09425
 Alpha virt. eigenvalues --    3.10854   3.11562   3.12227   3.12449   3.14502
 Alpha virt. eigenvalues --    3.15076   3.15825   3.16027   3.16762   3.17570
 Alpha virt. eigenvalues --    3.18511   3.19253   3.20053   3.20789   3.22253
 Alpha virt. eigenvalues --    3.23320   3.23545   3.24044   3.25059   3.26945
 Alpha virt. eigenvalues --    3.27366   3.29636   3.30932   3.31757   3.32144
 Alpha virt. eigenvalues --    3.32277   3.33305   3.33955   3.35059   3.35554
 Alpha virt. eigenvalues --    3.35642   3.36397   3.36935   3.37353   3.39206
 Alpha virt. eigenvalues --    3.39671   3.40934   3.42198   3.43110   3.44723
 Alpha virt. eigenvalues --    3.45134   3.47052   3.48115   3.49336   3.49428
 Alpha virt. eigenvalues --    3.50253   3.52022   3.54312   3.54633   3.55341
 Alpha virt. eigenvalues --    3.55950   3.58101   3.58523   3.60308   3.60786
 Alpha virt. eigenvalues --    3.61428   3.61833   3.64871   3.68472   3.73240
 Alpha virt. eigenvalues --    3.73371   3.74309   3.74461   3.74799   3.76041
 Alpha virt. eigenvalues --    3.77470   3.77817   3.78652   3.81568   3.83386
 Alpha virt. eigenvalues --    3.86241   3.87213   3.88243   3.89735   3.92280
 Alpha virt. eigenvalues --    3.94566   3.96004   3.96957   3.98504   3.98830
 Alpha virt. eigenvalues --    4.03628   4.04109   4.05439   4.05682   4.09048
 Alpha virt. eigenvalues --    4.09661   4.09745   4.10585   4.10693   4.11549
 Alpha virt. eigenvalues --    4.12807   4.13095   4.13898   4.15004   4.16130
 Alpha virt. eigenvalues --    4.16402   4.17068   4.17953   4.19128   4.34730
 Alpha virt. eigenvalues --    4.40562   4.49454   4.52634   4.61568   4.63470
 Alpha virt. eigenvalues --    4.72395   4.77691   4.77825   4.81472   4.83600
 Alpha virt. eigenvalues --    4.83983   4.84089   4.88804   4.88939   4.89997
 Alpha virt. eigenvalues --    5.02562   5.04453   5.12894   5.27278   5.27425
 Alpha virt. eigenvalues --    5.30004   5.58818   5.76058   5.76615   5.77001
 Alpha virt. eigenvalues --    7.76002   7.78856   7.80748   7.81598  17.11873
 Alpha virt. eigenvalues --   17.18555  17.19888  17.21467  17.28370  17.31363
 Alpha virt. eigenvalues --   17.43983  17.44501  17.46859  17.48868  17.51177
 Alpha virt. eigenvalues --   17.51537  23.41046  23.46839  23.49839  23.51856
 Alpha virt. eigenvalues --   23.55811  23.61939  23.66747  23.72676  23.76802
 Alpha virt. eigenvalues --   23.78629  23.82344  23.84884  23.85270  23.85408
 Alpha virt. eigenvalues --   23.86360  23.88846  23.89217  23.89776  23.91490
 Alpha virt. eigenvalues --   23.91708  23.92922  23.93053  23.93883  24.01202
 Alpha virt. eigenvalues --   24.01885  24.02563  24.03541  24.04049  24.04355
 Alpha virt. eigenvalues --   24.06293  24.10663  24.11100  24.11248  24.11484
 Alpha virt. eigenvalues --   24.12216  24.13090  24.13442  24.14639  24.17316
 Alpha virt. eigenvalues --   24.17591  24.17985  24.43319  35.46877  35.59761
 Alpha virt. eigenvalues --   35.64460  35.83629  49.84561  49.91103  49.91233
 Alpha virt. eigenvalues --   50.00128 188.87864 188.89247 188.92906 188.93470
          Condensed to atoms (all electrons):
 Mulliken charges:
               1
     1  C   -0.132623
     2  O   -0.347720
     3  C    0.172282
     4  C   -0.131194
     5  C   -0.065470
     6  C    0.062158
     7  N   -0.497755
     8  C    0.190282
     9  C   -0.113136
    10  C   -0.047528
    11  C    0.008277
    12  C   -0.102329
    13  C   -0.112574
    14  H    0.116938
    15  H    0.101927
    16  C   -0.270481
    17  S    0.311420
    18  C   -0.244166
    19  C   -0.008424
    20  C   -0.048226
    21  H    0.097435
    22  H    0.096673
    23  C   -0.231256
    24  S    0.324834
    25  C   -0.248717
    26  C   -0.010638
    27  C   -0.021250
    28  H    0.100448
    29  H    0.101017
    30  C   -0.226914
    31  C   -0.013688
    32  C   -0.006649
    33  C   -0.292908
    34  S    0.332520
    35  C    0.124018
    36  C   -0.122103
    37  C   -0.037862
    38  C   -0.073339
    39  C    0.126004
    40  C    0.144074
    41  N   -0.505467
    42  S    0.563276
    43  N   -0.477918
    44  C    0.095987
    45  C   -0.191464
    46  C    0.067317
    47  N   -0.234603
    48  C    0.431568
    49  O   -0.336287
    50  H    0.259371
    51  O   -0.317584
    52  H    0.145505
    53  H    0.133610
    54  H    0.108748
    55  H    0.129659
    56  H    0.100255
    57  H    0.091501
    58  H    0.115719
    59  C    0.063144
    60  C   -0.065351
    61  C   -0.131516
    62  C    0.172211
    63  C   -0.086216
    64  C   -0.060648
    65  H    0.106921
    66  H    0.105087
    67  O   -0.348646
    68  C   -0.132547
    69  H    0.111185
    70  H    0.110533
    71  H    0.130572
    72  H    0.106578
    73  H    0.104714
    74  C   -0.060059
    75  C   -0.085545
    76  H    0.106535
    77  H    0.107375
    78  H    0.103896
    79  H    0.106439
    80  H    0.131285
    81  H    0.111581
    82  H    0.109921
 Sum of Mulliken charges =   0.00000
 Mulliken charges with hydrogens summed into heavy atoms:
               1
     1  C    0.220164
     2  O   -0.347720
     3  C    0.172282
     4  C   -0.024755
     5  C    0.038426
     6  C    0.062158
     7  N   -0.497755
     8  C    0.190282
     9  C    0.002583
    10  C    0.043973
    11  C    0.008277
    12  C   -0.000402
    13  C    0.004364
    16  C   -0.270481
    17  S    0.311420
    18  C   -0.244166
    19  C    0.088249
    20  C    0.049209
    23  C   -0.231256
    24  S    0.324834
    25  C   -0.248717
    26  C    0.090378
    27  C    0.079198
    30  C   -0.226914
    31  C    0.086567
    32  C    0.123010
    33  C   -0.292908
    34  S    0.332520
    35  C    0.124018
    36  C   -0.013355
    37  C    0.095748
    38  C   -0.073339
    39  C    0.126004
    40  C    0.144074
    41  N   -0.505467
    42  S    0.563276
    43  N   -0.477918
    44  C    0.241492
    45  C   -0.191464
    46  C    0.067317
    47  N   -0.234603
    48  C    0.431568
    49  O   -0.076916
    51  O   -0.317584
    59  C    0.063144
    60  C    0.039363
    61  C   -0.024938
    62  C    0.172211
    63  C    0.018871
    64  C    0.046272
    67  O   -0.348646
    68  C    0.219744
    74  C    0.047316
    75  C    0.020990
 Electronic spatial extent (au):  <R**2>=         109338.9796
 Charge=              0.0000 electrons
 Dipole moment (field-independent basis, Debye):
    X=             -7.4174    Y=             -5.8239    Z=             -0.2364  Tot=              9.4335
 Quadrupole moment (field-independent basis, Debye-Ang):
   XX=           -249.5060   YY=           -338.0821   ZZ=           -338.9673
   XY=            -70.4256   XZ=             -7.2972   YZ=             -7.3108
 Traceless Quadrupole moment (field-independent basis, Debye-Ang):
   XX=             59.3458   YY=            -29.2303   ZZ=            -30.1155
   XY=            -70.4256   XZ=             -7.2972   YZ=             -7.3108
 Octapole moment (field-independent basis, Debye-Ang**2):
  XXX=           -696.6894  YYY=           -250.7662  ZZZ=              6.8585  XYY=           -434.4013
  XXY=           -118.5754  XXZ=            149.8181  XZZ=            -53.7963  YZZ=             53.2934
  YYZ=            -75.3197  XYZ=             73.9782
 Hexadecapole moment (field-independent basis, Debye-Ang**3):
 XXXX=        -104123.5025 YYYY=         -19480.4489 ZZZZ=           -962.0615 XXXY=          -3515.6328
 XXXZ=          -2273.4500 YYYX=          -3866.0628 YYYZ=           -390.0238 ZZZX=             11.4966
 ZZZY=            -23.7126 XXYY=         -25301.5533 XXZZ=         -21168.1381 YYZZ=          -3420.9658
 XXYZ=           -718.3959 YYXZ=            386.9866 ZZXY=             27.4813
 N-N= 6.545177195434D+03 E-N=-2.185389882124D+04  KE= 3.720068921960D+03
 1\1\GINC-N023\SP\RB3LYP TD-FC\6-311G(d,p)\C42H28N4O4S4\R2532\31-May-20
 21\0\\#N TD(NStates=10) B3lYP/6-311G(d,p)\\Name\\0,1\C,0,-8.182487,7.1
 28568,-1.105953\O,0,-7.424227,6.34312,-0.197444\C,0,-7.594299,4.990534
 ,-0.210206\C,0,-8.469618,4.30292,-1.054202\C,0,-8.556066,2.912758,-0.9
 8279\C,0,-7.794556,2.189376,-0.065242\N,0,-7.914267,0.769334,0.020459\
 C,0,-6.774216,-0.050771,0.00591\C,0,-6.768593,-1.297194,0.659475\C,0,-
 5.644102,-2.104499,0.641031\C,0,-4.467692,-1.716233,-0.024144\C,0,-4.4
 78614,-0.467096,-0.667243\C,0,-5.599876,0.346473,-0.658344\H,0,-5.5769
 08,1.293575,-1.181667\H,0,-3.602711,-0.138034,-1.21567\C,0,-3.298009,-
 2.590422,-0.040351\S,0,-1.679247,-1.948306,-0.237981\C,0,-0.956467,-3.
 542922,-0.138653\C,0,-1.93757,-4.494386,0.044753\C,0,-3.244337,-3.9614
 37,0.093471\H,0,-4.130751,-4.57135,0.204916\H,0,-1.716499,-5.548,0.153
 267\C,0,0.46609,-3.755461,-0.253515\S,0,1.625967,-2.48934,0.09096\C,0,
 2.982405,-3.542881,-0.26359\C,0,2.52668,-4.8025,-0.6028\C,0,1.123658,-
 4.920823,-0.59969\H,0,0.598595,-5.824193,-0.878894\H,0,3.192024,-5.607
 489,-0.884805\C,0,4.348203,-3.095277,-0.180959\C,0,5.489847,-3.87575,-
 0.107659\C,0,6.681322,-3.134897,-0.049206\C,0,6.495056,-1.761727,-0.06
 5502\S,0,4.773393,-1.400692,-0.18014\C,0,7.47084,-0.700054,-0.004172\C
 ,0,7.110588,0.645469,0.018098\C,0,8.027128,1.709041,0.075048\C,0,9.404
 895,1.522915,0.11638\C,0,9.839338,0.149149,0.096587\C,0,8.893835,-0.95
 1326,0.03749\N,0,9.486622,-2.145534,0.026726\S,0,11.103043,-1.887273,0
 .087207\N,0,11.109838,-0.25003,0.128721\C,0,10.416144,2.547404,0.17701
 6\C,0,10.318038,3.907627,0.206239\C,0,9.086736,4.624554,0.179205\N,0,8
 .074009,5.181561,0.156275\C,0,11.527344,4.770239,0.270304\O,0,12.68259
 4,4.060852,0.295141\H,0,13.395218,4.714294,0.336154\O,0,11.502773,5.97
 5544,0.297992\H,0,11.429221,2.163911,0.203953\H,0,7.621846,2.710797,0.
 088106\H,0,6.059098,0.905844,-0.006957\H,0,7.6642,-3.57476,0.016447\H,
 0,5.457693,-4.956156,-0.073146\H,0,-5.665615,-3.041239,1.185874\H,0,-7
 .649607,-1.620623,1.198724\C,0,-9.220243,0.201134,0.115168\C,0,-10.139
 608,0.682707,1.047013\C,0,-11.428031,0.154911,1.127792\C,0,-11.808286,
 -0.887709,0.279495\C,0,-10.887142,-1.380914,-0.653708\C,0,-9.616649,-0
 .837159,-0.741459\H,0,-8.917672,-1.217857,-1.476612\H,0,-11.199291,-2.
 182431,-1.312207\O,0,-13.035193,-1.482953,0.276218\C,0,-14.013089,-1.0
 20418,1.196578\H,0,-13.687246,-1.158105,2.2338\H,0,-14.254822,0.035405
 ,1.029631\H,0,-14.900545,-1.624742,1.016261\H,0,-12.114575,0.557814,1.
 860159\H,0,-9.849997,1.486332,1.713561\C,0,-6.927688,2.890499,0.786592
 \C,0,-6.820574,4.268759,0.708116\H,0,-6.152769,4.81606,1.362263\H,0,-6
 .334436,2.344841,1.510642\H,0,-9.232054,2.385586,-1.645441\H,0,-9.0789
 93,4.830121,-1.775834\H,0,-7.894368,8.161501,-0.918177\H,0,-7.953658,6
 .873436,-2.14684\H,0,-9.258874,7.01634,-0.932988\\Version=ES64L-G09Rev
 D.01\State=1-A\HF=-3730.5429671\RMSD=3.865e-09\PG=C01 [X(C42H28N4O4S4)
 ]\\@


 Statistics are no substitute for judgment.
                            -- Henry Clay
 Job cpu time:       0 days  9 hours  4 minutes 47.8 seconds.
 File lengths (MBytes):  RWF=   3325 Int=      0 D2E=      0 Chk=    482 Scr=      1
 Normal termination of Gaussian 09 at Mon May 31 06:59:28 2021.
