 Entering Gaussian System, Link 0=g16
 Input=mex.com
 Output=mex.out
 Initial command:
 /usr/local/apps/gaussian/g16-b01-avx2//g16/l1.exe "/tmp/r2532.885977.maple/Gau-37727.inp" -scrdir="/tmp/r2532.885977.maple/"
 Entering Link 1 = /usr/local/apps/gaussian/g16-b01-avx2//g16/l1.exe PID=     37732.
  
 Copyright (c) 1988-2017, Gaussian, Inc.  All Rights Reserved.
  
 This is part of the Gaussian(R) 16 program.  It is based on
 the Gaussian(R) 09 system (copyright 2009, Gaussian, Inc.),
 the Gaussian(R) 03 system (copyright 2003, Gaussian, Inc.),
 the Gaussian(R) 98 system (copyright 1998, Gaussian, Inc.),
 the Gaussian(R) 94 system (copyright 1995, Gaussian, Inc.),
 the Gaussian 92(TM) system (copyright 1992, Gaussian, Inc.),
 the Gaussian 90(TM) system (copyright 1990, Gaussian, Inc.),
 the Gaussian 88(TM) system (copyright 1988, Gaussian, Inc.),
 the Gaussian 86(TM) system (copyright 1986, Carnegie Mellon
 University), and the Gaussian 82(TM) system (copyright 1983,
 Carnegie Mellon University). Gaussian is a federally registered
 trademark of Gaussian, Inc.
  
 This software contains proprietary and confidential information,
 including trade secrets, belonging to Gaussian, Inc.
  
 This software is provided under written license and may be
 used, copied, transmitted, or stored only in accord with that
 written license.
  
 The following legend is applicable only to US Government
 contracts under FAR:
  
                    RESTRICTED RIGHTS LEGEND
  
 Use, reproduction and disclosure by the US Government is
 subject to restrictions as set forth in subparagraphs (a)
 and (c) of the Commercial Computer Software - Restricted
 Rights clause in FAR 52.227-19.
  
 Gaussian, Inc.
 340 Quinnipiac St., Bldg. 40, Wallingford CT 06492
  
  
 ---------------------------------------------------------------
 Warning -- This program may not be used in any manner that
 competes with the business of Gaussian, Inc. or will provide
 assistance to any competitor of Gaussian, Inc.  The licensee
 of this program is prohibited from giving any competitor of
 Gaussian, Inc. access to this program.  By using this program,
 the user acknowledges that Gaussian, Inc. is engaged in the
 business of creating and licensing software in the field of
 computational chemistry and represents and warrants to the
 licensee that it is not a competitor of Gaussian, Inc. and that
 it will not use this program in any manner prohibited above.
 ---------------------------------------------------------------
  

 Cite this work as:
 Gaussian 16, Revision B.01,
 M. J. Frisch, G. W. Trucks, H. B. Schlegel, G. E. Scuseria, 
 M. A. Robb, J. R. Cheeseman, G. Scalmani, V. Barone, 
 G. A. Petersson, H. Nakatsuji, X. Li, M. Caricato, A. V. Marenich, 
 J. Bloino, B. G. Janesko, R. Gomperts, B. Mennucci, H. P. Hratchian, 
 J. V. Ortiz, A. F. Izmaylov, J. L. Sonnenberg, D. Williams-Young, 
 F. Ding, F. Lipparini, F. Egidi, J. Goings, B. Peng, A. Petrone, 
 T. Henderson, D. Ranasinghe, V. G. Zakrzewski, J. Gao, N. Rega, 
 G. Zheng, W. Liang, M. Hada, M. Ehara, K. Toyota, R. Fukuda, 
 J. Hasegawa, M. Ishida, T. Nakajima, Y. Honda, O. Kitao, H. Nakai, 
 T. Vreven, K. Throssell, J. A. Montgomery, Jr., J. E. Peralta, 
 F. Ogliaro, M. J. Bearpark, J. J. Heyd, E. N. Brothers, K. N. Kudin, 
 V. N. Staroverov, T. A. Keith, R. Kobayashi, J. Normand, 
 K. Raghavachari, A. P. Rendell, J. C. Burant, S. S. Iyengar, 
 J. Tomasi, M. Cossi, J. M. Millam, M. Klene, C. Adamo, R. Cammi, 
 J. W. Ochterski, R. L. Martin, K. Morokuma, O. Farkas, 
 J. B. Foresman, and D. J. Fox, Gaussian, Inc., Wallingford CT, 2016.
 
 ******************************************
 Gaussian 16:  ES64L-G16RevB.01 20-Dec-2017
                 8-Jul-2021 
 ******************************************
 %mem=8gb
 -------------------------------------
 #N TD(NStates=10) PBE1PBE/6-311G(d,p)
 -------------------------------------
 1/38=1,172=1/1;
 2/12=2,17=6,18=5,40=1/2;
 3/5=4,6=6,7=101,11=9,25=1,30=1,74=-13/1,2,3,8;
 4//1;
 5/5=2,38=5/2;
 8/6=1,10=2,108=10/1;
 9/41=10,42=1,70=2/14;
 6/7=2,8=2,9=2,10=2/1;
 99/5=1,9=1/99;
 ----
 Name
 ----
 Symbolic Z-matrix:
 Charge =  0 Multiplicity = 1
 6                    -7.85487   6.02406  -0.40349 
 8                    -6.9301    5.44558   0.50729 
 6                    -6.55144   4.15151   0.3146 
 6                    -7.01308   3.3287   -0.71603 
 6                    -6.54892   2.01784  -0.81965 
 6                    -5.63931   1.50177   0.10224 
 7                    -5.1954    0.14668   0.00462 
 6                    -3.83143  -0.16641   0.01612 
 6                    -3.37685  -1.42332   0.46319 
 6                    -2.02874  -1.73047   0.4692 
 6                    -1.05804  -0.80801   0.0353 
 6                    -1.51945   0.44626  -0.40313 
 6                    -2.86594   0.76331  -0.41674 
 1                    -3.1827    1.73189  -0.78053 
 1                    -0.81097   1.17865  -0.77416 
 6                     0.35539  -1.15676   0.04023 
 16                    1.59829   0.07195   0.05968 
 6                     2.88992  -1.12803   0.04186 
 6                     2.33922  -2.39936   0.04197 
 6                     0.9337   -2.4134    0.03945 
 1                     0.35165  -3.32419   0.00432 
 1                     2.95258  -3.28684   0.02924 
 6                     4.27463  -0.72531   0.02782 
 6                     4.66333   0.61167  -0.04198 
 6                     5.99809   1.0487   -0.05879 
 6                     7.08187   0.17841  -0.0089 
 6                     6.74383  -1.21949   0.06787 
 6                     5.36506  -1.67348   0.0861 
 7                     5.25742  -3.00001   0.1624 
 16                    6.77499  -3.61312   0.20635 
 7                     7.62756  -2.21463   0.13189 
 6                     8.47963   0.52844  -0.0263 
 6                     9.11572   1.73216  -0.0983 
 6                     8.43282   2.9769   -0.21418 
 7                     7.85974   3.97801  -0.29075 
 6                     10.61293   1.84396  -0.16783 
 8                     11.17017   2.79436  -0.63991 
 8                     11.32641   0.79556   0.32049 
 1                     10.76477   0.21745   0.84941 
 1                     9.11986  -0.34882  -0.00524 
 1                     6.16939   2.11421  -0.11888 
 1                     3.89673   1.37542  -0.09279 
 1                    -1.71748  -2.69481   0.85323 
 1                    -4.09183  -2.15159   0.82293 
 6                    -6.18248  -0.88051  -0.10949 
 6                    -7.24314  -0.94913   0.79286 
 6                    -8.22611  -1.93116   0.67429 
 6                    -8.14618  -2.87624  -0.35165 
 6                    -7.08086  -2.8135   -1.25979 
 6                    -6.11918  -1.82388  -1.14572 
 1                    -5.30664  -1.77684  -1.86104 
 1                    -7.03922  -3.54581  -2.05684 
 8                    -9.0421   -3.88202  -0.55586 
 6                    -10.14042  -4.00272   0.33748 
 1                    -9.80465  -4.18371   1.36466 
 1                    -10.77721  -3.11122   0.31483 
 1                    -10.71257  -4.86124  -0.00985 
 1                    -9.03614  -1.95162   1.39075 
 1                    -7.30743  -0.2231    1.59455 
 6                    -5.19181   2.33078   1.14162 
 6                    -5.6331    3.63935   1.24094 
 1                    -5.29209   4.28604   2.04019 
 1                    -4.49192   1.94131   1.87145 
 1                    -6.90644   1.38699  -1.62476 
 1                    -7.72131   3.69391  -1.44742 
 1                    -8.0099    7.04544  -0.06037 
 1                    -7.45583   6.04221  -1.42376 
 1                    -8.81234   5.49115  -0.39674 
 
 Stoichiometry    C34H24N4O4S2
 Framework group  C1[X(C34H24N4O4S2)]
 Deg. of freedom   198
 Full point group                 C1      NOp   1
 Largest Abelian subgroup         C1      NOp   1
 Largest concise Abelian subgroup C1      NOp   1
                         Standard orientation:                         
 ---------------------------------------------------------------------
 Center     Atomic      Atomic             Coordinates (Angstroms)
 Number     Number       Type             X           Y           Z
 ---------------------------------------------------------------------
      1          6           0        7.854865    6.024058    0.403487
      2          8           0        6.930098    5.445576   -0.507285
      3          6           0        6.551439    4.151509   -0.314600
      4          6           0        7.013084    3.328698    0.716028
      5          6           0        6.548922    2.017843    0.819648
      6          6           0        5.639310    1.501770   -0.102244
      7          7           0        5.195402    0.146676   -0.004616
      8          6           0        3.831426   -0.166409   -0.016121
      9          6           0        3.376849   -1.423317   -0.463194
     10          6           0        2.028745   -1.730473   -0.469197
     11          6           0        1.058040   -0.808007   -0.035304
     12          6           0        1.519446    0.446258    0.403126
     13          6           0        2.865936    0.763307    0.416735
     14          1           0        3.182701    1.731893    0.780526
     15          1           0        0.810972    1.178648    0.774162
     16          6           0       -0.355386   -1.156756   -0.040233
     17         16           0       -1.598290    0.071945   -0.059677
     18          6           0       -2.889919   -1.128032   -0.041858
     19          6           0       -2.339225   -2.399356   -0.041965
     20          6           0       -0.933701   -2.413395   -0.039446
     21          1           0       -0.351646   -3.324188   -0.004324
     22          1           0       -2.952581   -3.286838   -0.029235
     23          6           0       -4.274635   -0.725308   -0.027824
     24          6           0       -4.663327    0.611667    0.041976
     25          6           0       -5.998093    1.048696    0.058794
     26          6           0       -7.081872    0.178411    0.008897
     27          6           0       -6.743828   -1.219490   -0.067869
     28          6           0       -5.365060   -1.673476   -0.086099
     29          7           0       -5.257420   -3.000011   -0.162402
     30         16           0       -6.774991   -3.613123   -0.206354
     31          7           0       -7.627557   -2.214635   -0.131885
     32          6           0       -8.479634    0.528438    0.026300
     33          6           0       -9.115721    1.732156    0.098297
     34          6           0       -8.432816    2.976899    0.214181
     35          7           0       -7.859740    3.978005    0.290750
     36          6           0      -10.612934    1.843960    0.167833
     37          8           0      -11.170170    2.794364    0.639908
     38          8           0      -11.326407    0.795559   -0.320491
     39          1           0      -10.764773    0.217454   -0.849414
     40          1           0       -9.119864   -0.348824    0.005237
     41          1           0       -6.169390    2.114206    0.118876
     42          1           0       -3.896732    1.375424    0.092792
     43          1           0        1.717481   -2.694805   -0.853227
     44          1           0        4.091832   -2.151590   -0.822929
     45          6           0        6.182485   -0.880510    0.109488
     46          6           0        7.243138   -0.949132   -0.792860
     47          6           0        8.226109   -1.931155   -0.674294
     48          6           0        8.146178   -2.876241    0.351647
     49          6           0        7.080856   -2.813495    1.259788
     50          6           0        6.119176   -1.823881    1.145719
     51          1           0        5.306643   -1.776838    1.861042
     52          1           0        7.039224   -3.545811    2.056842
     53          8           0        9.042096   -3.882022    0.555863
     54          6           0       10.140418   -4.002717   -0.337475
     55          1           0        9.804647   -4.183713   -1.364656
     56          1           0       10.777211   -3.111220   -0.314833
     57          1           0       10.712574   -4.861240    0.009852
     58          1           0        9.036138   -1.951624   -1.390748
     59          1           0        7.307425   -0.223104   -1.594546
     60          6           0        5.191810    2.330782   -1.141623
     61          6           0        5.633098    3.639345   -1.240941
     62          1           0        5.292087    4.286042   -2.040189
     63          1           0        4.491923    1.941314   -1.871452
     64          1           0        6.906439    1.386992    1.624756
     65          1           0        7.721313    3.693910    1.447422
     66          1           0        8.009898    7.045443    0.060366
     67          1           0        7.455829    6.042205    1.423759
     68          1           0        8.812336    5.491153    0.396740
 ---------------------------------------------------------------------
 Rotational constants (GHZ):           0.1203711           0.0186880           0.0163501
 Standard basis: 6-311G(d,p) (5D, 7F)
 There are   996 symmetry adapted cartesian basis functions of A   symmetry.
 There are   952 symmetry adapted basis functions of A   symmetry.
   952 basis functions,  1628 primitive gaussians,   996 cartesian basis functions
   160 alpha electrons      160 beta electrons
       nuclear repulsion energy      4738.9108355456 Hartrees.
 NAtoms=   68 NActive=   68 NUniq=   68 SFac= 1.00D+00 NAtFMM=   60 NAOKFM=T Big=T
 Integral buffers will be    131072 words long.
 Regular integral format.
 Two-electron integral symmetry is turned on.
 One-electron integrals computed using PRISM.
 NBasis=   952 RedAO= T EigKep=  1.21D-04  NBF=   952
 NBsUse=   952 1.00D-06 EigRej= -1.00D+00 NBFU=   952
 ExpMin= 7.71D-02 ExpMax= 9.34D+04 ExpMxC= 3.17D+03 IAcc=3 IRadAn=         5 AccDes= 0.00D+00
 Harris functional with IExCor= 1009 and IRadAn=       5 diagonalized for initial guess.
 HarFok:  IExCor= 1009 AccDes= 0.00D+00 IRadAn=         5 IDoV= 1 UseB2=F ITyADJ=14
 ICtDFT=  3500011 ScaDFX=  1.000000  1.000000  1.000000  1.000000
 FoFCou: FMM=F IPFlag=           0 FMFlag=      100000 FMFlg1=        2001
         NFxFlg=           0 DoJE=T BraDBF=F KetDBF=T FulRan=T
         wScrn=  0.000000 ICntrl=       500 IOpCl=  0 I1Cent=   200000004 NGrid=           0
         NMat0=    1 NMatS0=      1 NMatT0=    0 NMatD0=    1 NMtDS0=    0 NMtDT0=    0
 Petite list used in FoFCou.
 Requested convergence on RMS density matrix=1.00D-08 within 128 cycles.
 Requested convergence on MAX density matrix=1.00D-06.
 Requested convergence on             energy=1.00D-06.
 No special actions if energy rises.
 Integral accuracy reduced to 1.0D-05 until final iterations.
 Initial convergence to 1.0D-05 achieved.  Increase integral accuracy.
 SCF Done:  E(RPBE1PBE) =  -2624.36342554     A.U. after   19 cycles
            NFock= 19  Conv=0.40D-08     -V/T= 2.0030
 DoSCS=F DFT=T ScalE2(SS,OS)=  1.000000  1.000000
 ExpMin= 7.71D-02 ExpMax= 9.34D+04 ExpMxC= 3.17D+03 IAcc=3 IRadAn=         5 AccDes= 0.00D+00
 HarFok:  IExCor=  205 AccDes= 0.00D+00 IRadAn=         5 IDoV=-2 UseB2=F ITyADJ=14
 ICtDFT= 12500011 ScaDFX=  1.000000  1.000000  1.000000  1.000000
 GSVD:  LWork=       -3120 too small for GESVD, short by       14300 words or       14300 for optimal perf.
 Range of M.O.s used for correlation:    53   952
 NBasis=   952 NAE=   160 NBE=   160 NFC=    52 NFV=     0
 NROrb=    900 NOA=   108 NOB=   108 NVA=   792 NVB=   792

 **** Warning!!: The largest alpha MO coefficient is  0.13131321D+02


 **** Warning!!: The smallest alpha delta epsilon is  0.74491707D-01

 Orbital symmetries:
       Occupied  (A) (A) (A) (A) (A) (A) (A) (A) (A) (A) (A) (A)
                 (A) (A) (A) (A) (A) (A) (A) (A) (A) (A) (A) (A)
                 (A) (A) (A) (A) (A) (A) (A) (A) (A) (A) (A) (A)
                 (A) (A) (A) (A) (A) (A) (A) (A) (A) (A) (A) (A)
                 (A) (A) (A) (A) (A) (A) (A) (A) (A) (A) (A) (A)
                 (A) (A) (A) (A) (A) (A) (A) (A) (A) (A) (A) (A)
                 (A) (A) (A) (A) (A) (A) (A) (A) (A) (A) (A) (A)
                 (A) (A) (A) (A) (A) (A) (A) (A) (A) (A) (A) (A)
                 (A) (A) (A) (A) (A) (A) (A) (A) (A) (A) (A) (A)
                 (A) (A) (A) (A) (A) (A) (A) (A) (A) (A) (A) (A)
                 (A) (A) (A) (A) (A) (A) (A) (A) (A) (A) (A) (A)
                 (A) (A) (A) (A) (A) (A) (A) (A) (A) (A) (A) (A)
                 (A) (A) (A) (A) (A) (A) (A) (A) (A) (A) (A) (A)
                 (A) (A) (A) (A)
       Virtual   (A) (A) (A) (A) (A) (A) (A) (A) (A) (A) (A) (A)
                 (A) (A) (A) (A) (A) (A) (A) (A) (A) (A) (A) (A)
                 (A) (A) (A) (A) (A) (A) (A) (A) (A) (A) (A) (A)
                 (A) (A) (A) (A) (A) (A) (A) (A) (A) (A) (A) (A)
                 (A) (A) (A) (A) (A) (A) (A) (A) (A) (A) (A) (A)
                 (A) (A) (A) (A) (A) (A) (A) (A) (A) (A) (A) (A)
                 (A) (A) (A) (A) (A) (A) (A) (A) (A) (A) (A) (A)
                 (A) (A) (A) (A) (A) (A) (A) (A) (A) (A) (A) (A)
                 (A) (A) (A) (A) (A) (A) (A) (A) (A) (A) (A) (A)
                 (A) (A) (A) (A) (A) (A) (A) (A) (A) (A) (A) (A)
                 (A) (A) (A) (A) (A) (A) (A) (A) (A) (A) (A) (A)
                 (A) (A) (A) (A) (A) (A) (A) (A) (A) (A) (A) (A)
                 (A) (A) (A) (A) (A) (A) (A) (A) (A) (A) (A) (A)
                 (A) (A) (A) (A) (A) (A) (A) (A) (A) (A) (A) (A)
                 (A) (A) (A) (A) (A) (A) (A) (A) (A) (A) (A) (A)
                 (A) (A) (A) (A) (A) (A) (A) (A) (A) (A) (A) (A)
                 (A) (A) (A) (A) (A) (A) (A) (A) (A) (A) (A) (A)
                 (A) (A) (A) (A) (A) (A) (A) (A) (A) (A) (A) (A)
                 (A) (A) (A) (A) (A) (A) (A) (A) (A) (A) (A) (A)
                 (A) (A) (A) (A) (A) (A) (A) (A) (A) (A) (A) (A)
                 (A) (A) (A) (A) (A) (A) (A) (A) (A) (A) (A) (A)
                 (A) (A) (A) (A) (A) (A) (A) (A) (A) (A) (A) (A)
                 (A) (A) (A) (A) (A) (A) (A) (A) (A) (A) (A) (A)
                 (A) (A) (A) (A) (A) (A) (A) (A) (A) (A) (A) (A)
                 (A) (A) (A) (A) (A) (A) (A) (A) (A) (A) (A) (A)
                 (A) (A) (A) (A) (A) (A) (A) (A) (A) (A) (A) (A)
                 (A) (A) (A) (A) (A) (A) (A) (A) (A) (A) (A) (A)
                 (A) (A) (A) (A) (A) (A) (A) (A) (A) (A) (A) (A)
                 (A) (A) (A) (A) (A) (A) (A) (A) (A) (A) (A) (A)
                 (A) (A) (A) (A) (A) (A) (A) (A) (A) (A) (A) (A)
                 (A) (A) (A) (A) (A) (A) (A) (A) (A) (A) (A) (A)
                 (A) (A) (A) (A) (A) (A) (A) (A) (A) (A) (A) (A)
                 (A) (A) (A) (A) (A) (A) (A) (A) (A) (A) (A) (A)
                 (A) (A) (A) (A) (A) (A) (A) (A) (A) (A) (A) (A)
                 (A) (A) (A) (A) (A) (A) (A) (A) (A) (A) (A) (A)
                 (A) (A) (A) (A) (A) (A) (A) (A) (A) (A) (A) (A)
                 (A) (A) (A) (A) (A) (A) (A) (A) (A) (A) (A) (A)
                 (A) (A) (A) (A) (A) (A) (A) (A) (A) (A) (A) (A)
                 (A) (A) (A) (A) (A) (A) (A) (A) (A) (A) (A) (A)
                 (A) (A) (A) (A) (A) (A) (A) (A) (A) (A) (A) (A)
                 (A) (A) (A) (A) (A) (A) (A) (A) (A) (A) (A) (A)
                 (A) (A) (A) (A) (A) (A) (A) (A) (A) (A) (A) (A)
                 (A) (A) (A) (A) (A) (A) (A) (A) (A) (A) (A) (A)
                 (A) (A) (A) (A) (A) (A) (A) (A) (A) (A) (A) (A)
                 (A) (A) (A) (A) (A) (A) (A) (A) (A) (A) (A) (A)
                 (A) (A) (A) (A) (A) (A) (A) (A) (A) (A) (A) (A)
                 (A) (A) (A) (A) (A) (A) (A) (A) (A) (A) (A) (A)
                 (A) (A) (A) (A) (A) (A) (A) (A) (A) (A) (A) (A)
                 (A) (A) (A) (A) (A) (A) (A) (A) (A) (A) (A) (A)
                 (A) (A) (A) (A) (A) (A) (A) (A) (A) (A) (A) (A)
                 (A) (A) (A) (A) (A) (A) (A) (A) (A) (A) (A) (A)
                 (A) (A) (A) (A) (A) (A) (A) (A) (A) (A) (A) (A)
                 (A) (A) (A) (A) (A) (A) (A) (A) (A) (A) (A) (A)
                 (A) (A) (A) (A) (A) (A) (A) (A) (A) (A) (A) (A)
                 (A) (A) (A) (A) (A) (A) (A) (A) (A) (A) (A) (A)
                 (A) (A) (A) (A) (A) (A) (A) (A) (A) (A) (A) (A)
                 (A) (A) (A) (A) (A) (A) (A) (A) (A) (A) (A) (A)
                 (A) (A) (A) (A) (A) (A) (A) (A) (A) (A) (A) (A)
                 (A) (A) (A) (A) (A) (A) (A) (A) (A) (A) (A) (A)
                 (A) (A) (A) (A) (A) (A) (A) (A) (A) (A) (A) (A)
                 (A) (A) (A) (A) (A) (A) (A) (A) (A) (A) (A) (A)
                 (A) (A) (A) (A) (A) (A) (A) (A) (A) (A) (A) (A)
                 (A) (A) (A) (A) (A) (A) (A) (A) (A) (A) (A) (A)
                 (A) (A) (A) (A) (A) (A) (A) (A) (A) (A) (A) (A)
                 (A) (A) (A) (A) (A) (A) (A) (A) (A) (A) (A) (A)
                 (A) (A) (A) (A) (A) (A) (A) (A) (A) (A) (A) (A)
    40 initial guesses have been made.
 Convergence on wavefunction:    0.001000000000000
 Iteration     1 Dimension    40 NMult     0 NNew     40
 CISAX will form    40 AO SS matrices at one time.
 New state      8 was old state     10
 New state     10 was old state     15
 Iteration     2 Dimension    60 NMult    40 NNew     20
 Iteration     3 Dimension    80 NMult    60 NNew     20
 Iteration     4 Dimension   100 NMult    80 NNew     20
 Iteration     5 Dimension   120 NMult   100 NNew     20
 Iteration     6 Dimension   130 NMult   120 NNew     10
 Iteration     7 Dimension   134 NMult   130 NNew      4
 ***********************************************************************
 Excited states from <AA,BB:AA,BB> singles matrix:
 ***********************************************************************
 
 Ground to excited state transition densities written to RWF  633
 Ground to excited state transition electric dipole moments (Au):
       state          X           Y           Z        Dip. S.      Osc.
         1         4.0125     -0.1418     -0.0139     16.1207      0.6878
         2         2.2300     -0.6742     -0.0396      5.4289      0.3363
         3         2.1268     -0.4736     -0.0317      4.7484      0.3384
         4         0.1773      0.2039     -0.0071      0.0731      0.0058
         5         1.5004     -0.0684     -0.0122      2.2559      0.1823
         6         1.5909      0.7706      0.0455      3.1268      0.2606
         7         0.4825      0.1004      0.0001      0.2429      0.0211
         8        -0.4831      0.4236      0.3312      0.5225      0.0470
         9         0.6469     -0.9242      0.1323      1.2901      0.1165
        10         0.1547     -0.1076     -0.2134      0.0811      0.0075
 Ground to excited state transition velocity dipole moments (Au):
       state          X           Y           Z        Dip. S.      Osc.
         1        -0.2537      0.0079      0.0005      0.0644      0.6708
         2        -0.2099      0.0608      0.0037      0.0478      0.3428
         3        -0.2211      0.0530      0.0034      0.0517      0.3224
         4        -0.0219     -0.0227      0.0009      0.0010      0.0055
         5        -0.1831      0.0089      0.0021      0.0336      0.1848
         6        -0.1949     -0.0961     -0.0062      0.0472      0.2519
         7        -0.0611     -0.0100     -0.0004      0.0038      0.0196
         8         0.0639     -0.0599     -0.0540      0.0106      0.0523
         9        -0.0829      0.1224     -0.0232      0.0224      0.1102
        10        -0.0208      0.0169      0.0346      0.0019      0.0092
 Ground to excited state transition magnetic dipole moments (Au):
       state          X           Y           Z
         1        -0.0281      0.0356     -0.8362
         2         0.0078      0.0502     -0.9883
         3        -0.0248      0.0599     -1.3004
         4        -0.0143     -0.0021     -0.4510
         5        -0.0935      0.0148     -0.8317
         6        -0.0824     -0.0075     -0.0876
         7        -0.0086      0.0230     -0.5253
         8        -0.0503      0.5555      1.6351
         9         0.0193      0.4342     -0.7236
        10         0.0485     -0.4591     -0.2530
 Ground to excited state transition velocity quadrupole moments (Au):
       state          XX          YY          ZZ          XY          XZ          YZ
         1         1.2175     -0.0420     -0.0265     -0.2446     -0.0218      0.0255
         2         3.4775      0.1678     -0.0122     -0.6284     -0.0404      0.0116
         3         1.7796     -0.0658     -0.0206     -0.9890     -0.0681      0.0195
         4         0.3152     -0.1227     -0.0053     -0.5950     -0.0285     -0.0015
         5        -0.5242     -0.2402     -0.0333     -0.4787     -0.0493      0.0288
         6        -3.5254     -0.3614     -0.0350      0.7407      0.0412      0.0255
         7        -0.1974      0.0115     -0.0205     -0.0665     -0.0356      0.0008
         8        -2.1936     -0.0989     -0.0006      0.9381     -0.4829     -0.0239
         9         4.3543      0.2986      0.0114     -1.5052     -0.4176     -0.0040
        10         0.3470     -0.0323      0.0043     -0.1066      0.3230      0.0089
 <0|del|b> * <b|rxdel|0> + <0|del|b> * <b|delr+rdel|0>
 Rotatory Strengths (R) in cgs (10**-40 erg-esu-cm/Gauss)
       state          XX          YY          ZZ    R(velocity)    E-M Angle
         1        -0.4556      2.0397     75.6151     25.7331       88.12
         2        -1.8415    -20.5681      5.3688     -5.6803       90.59
         3        -3.5311      0.3590     30.9950      9.2743       89.19
         4        -4.5125      1.3968      2.8771     -0.0795       90.00
         5        -6.4573     32.3814     64.3894     30.1045       84.21
         6         1.8120     45.8204     50.3120     32.6481       48.60
         7        -0.9056      1.8249      1.8965      0.9386       89.09
         8      -527.0380   -111.0459    -15.7968   -217.9602      134.58
         9       406.7405    -50.5670      0.2758    118.8164       57.27
        10       -65.1684    -15.9098     -7.9284    -29.6689      139.49
 1/2[<0|r|b>*<b|rxdel|0> + (<0|rxdel|b>*<b|r|0>)*]
 Rotatory Strengths (R) in cgs (10**-40 erg-esu-cm/Gauss)
       state          XX          YY          ZZ     R(length)
         1        79.6511      3.5658     -8.2258     24.9970
         2       -12.2252     23.9355    -27.7094     -5.3330
         3        37.3499     20.0758    -29.1383      9.4291
         4         1.7886      0.2966     -2.2647     -0.0598
         5        99.1884      0.7171     -7.1858     30.9066
         6        92.7030      4.0834      2.8203     33.2023
         7         2.9298     -1.6315      0.0296      0.4427
         8       -17.1684   -166.3729   -382.9161   -188.8192
         9        -8.8265    283.7937     67.6804    114.2159
        10        -5.3018    -34.9440    -38.1896    -26.1451
  1/2[<0|del|b>*<b|r|0> + (<0|r|b>*<b|del|0>)*] (Au)
       state          X           Y           Z        Dip. S.   Osc.(frdel)
         1        -1.0178     -0.0011     -0.0000      1.0189      0.6793
         2        -0.4682     -0.0410     -0.0001      0.5093      0.3395
         3        -0.4702     -0.0251     -0.0001      0.4954      0.3303
         4        -0.0039     -0.0046     -0.0000      0.0085      0.0057
         5        -0.2747     -0.0006     -0.0000      0.2753      0.1835
         6        -0.3100     -0.0741     -0.0003      0.3844      0.2562
         7        -0.0295     -0.0010     -0.0000      0.0305      0.0203
         8        -0.0309     -0.0254     -0.0179      0.0741      0.0494
         9        -0.0536     -0.1131     -0.0031      0.1698      0.1132
        10        -0.0032     -0.0018     -0.0074      0.0124      0.0083

 Excitation energies and oscillator strengths:
 
 Excited State   1:      Singlet-A      1.7416 eV  711.90 nm  f=0.6878  <S**2>=0.000
     160 ->161         0.70668
 This state for optimization and/or second-order correction.
 Total Energy, E(TD-HF/TD-DFT) =  -2624.29942293    
 Copying the excited state density for this state as the 1-particle RhoCI density.
 
 Excited State   2:      Singlet-A      2.5288 eV  490.29 nm  f=0.3363  <S**2>=0.000
     159 ->161         0.68596
     160 ->162        -0.11797
 
 Excited State   3:      Singlet-A      2.9092 eV  426.17 nm  f=0.3384  <S**2>=0.000
     159 ->161         0.12035
     159 ->162         0.11509
     160 ->162         0.67417
     160 ->163         0.11324
 
 Excited State   4:      Singlet-A      3.2526 eV  381.18 nm  f=0.0058  <S**2>=0.000
     157 ->161         0.10981
     158 ->161         0.69364
 
 Excited State   5:      Singlet-A      3.2982 eV  375.91 nm  f=0.1823  <S**2>=0.000
     157 ->161         0.54040
     158 ->161        -0.12548
     160 ->163         0.41182
 
 Excited State   6:      Singlet-A      3.4024 eV  364.40 nm  f=0.2606  <S**2>=0.000
     154 ->161        -0.12215
     156 ->161        -0.12792
     157 ->161        -0.36540
     159 ->162         0.16855
     160 ->162        -0.13597
     160 ->163         0.51895
 
 Excited State   7:      Singlet-A      3.5425 eV  349.99 nm  f=0.0211  <S**2>=0.000
     154 ->161         0.42770
     155 ->161         0.11449
     156 ->161         0.46583
     157 ->161        -0.10297
     159 ->162         0.23226
 
 Excited State   8:      Singlet-A      3.6708 eV  337.76 nm  f=0.0470  <S**2>=0.000
     154 ->161        -0.10789
     156 ->161         0.20184
     159 ->162        -0.30320
     160 ->164         0.55928
 
 Excited State   9:      Singlet-A      3.6869 eV  336.29 nm  f=0.1165  <S**2>=0.000
     154 ->161        -0.15862
     155 ->161        -0.10607
     157 ->161         0.16875
     159 ->162         0.52397
     160 ->163        -0.13566
     160 ->164         0.32162
 
 Excited State  10:      Singlet-A      3.7895 eV  327.18 nm  f=0.0075  <S**2>=0.000
     153 ->161         0.22626
     154 ->161        -0.37835
     155 ->161        -0.20666
     156 ->161         0.43603
     160 ->164        -0.25173
 SavETr:  write IOETrn=   770 NScale= 10 NData=  16 NLR=1 NState=   10 LETran=     190.

 **********************************************************************

            Population analysis using the SCF Density.

 **********************************************************************

 Orbital symmetries:
       Occupied  (A) (A) (A) (A) (A) (A) (A) (A) (A) (A) (A) (A)
                 (A) (A) (A) (A) (A) (A) (A) (A) (A) (A) (A) (A)
                 (A) (A) (A) (A) (A) (A) (A) (A) (A) (A) (A) (A)
                 (A) (A) (A) (A) (A) (A) (A) (A) (A) (A) (A) (A)
                 (A) (A) (A) (A) (A) (A) (A) (A) (A) (A) (A) (A)
                 (A) (A) (A) (A) (A) (A) (A) (A) (A) (A) (A) (A)
                 (A) (A) (A) (A) (A) (A) (A) (A) (A) (A) (A) (A)
                 (A) (A) (A) (A) (A) (A) (A) (A) (A) (A) (A) (A)
                 (A) (A) (A) (A) (A) (A) (A) (A) (A) (A) (A) (A)
                 (A) (A) (A) (A) (A) (A) (A) (A) (A) (A) (A) (A)
                 (A) (A) (A) (A) (A) (A) (A) (A) (A) (A) (A) (A)
                 (A) (A) (A) (A) (A) (A) (A) (A) (A) (A) (A) (A)
                 (A) (A) (A) (A) (A) (A) (A) (A) (A) (A) (A) (A)
                 (A) (A) (A) (A)
       Virtual   (A) (A) (A) (A) (A) (A) (A) (A) (A) (A) (A) (A)
                 (A) (A) (A) (A) (A) (A) (A) (A) (A) (A) (A) (A)
                 (A) (A) (A) (A) (A) (A) (A) (A) (A) (A) (A) (A)
                 (A) (A) (A) (A) (A) (A) (A) (A) (A) (A) (A) (A)
                 (A) (A) (A) (A) (A) (A) (A) (A) (A) (A) (A) (A)
                 (A) (A) (A) (A) (A) (A) (A) (A) (A) (A) (A) (A)
                 (A) (A) (A) (A) (A) (A) (A) (A) (A) (A) (A) (A)
                 (A) (A) (A) (A) (A) (A) (A) (A) (A) (A) (A) (A)
                 (A) (A) (A) (A) (A) (A) (A) (A) (A) (A) (A) (A)
                 (A) (A) (A) (A) (A) (A) (A) (A) (A) (A) (A) (A)
                 (A) (A) (A) (A) (A) (A) (A) (A) (A) (A) (A) (A)
                 (A) (A) (A) (A) (A) (A) (A) (A) (A) (A) (A) (A)
                 (A) (A) (A) (A) (A) (A) (A) (A) (A) (A) (A) (A)
                 (A) (A) (A) (A) (A) (A) (A) (A) (A) (A) (A) (A)
                 (A) (A) (A) (A) (A) (A) (A) (A) (A) (A) (A) (A)
                 (A) (A) (A) (A) (A) (A) (A) (A) (A) (A) (A) (A)
                 (A) (A) (A) (A) (A) (A) (A) (A) (A) (A) (A) (A)
                 (A) (A) (A) (A) (A) (A) (A) (A) (A) (A) (A) (A)
                 (A) (A) (A) (A) (A) (A) (A) (A) (A) (A) (A) (A)
                 (A) (A) (A) (A) (A) (A) (A) (A) (A) (A) (A) (A)
                 (A) (A) (A) (A) (A) (A) (A) (A) (A) (A) (A) (A)
                 (A) (A) (A) (A) (A) (A) (A) (A) (A) (A) (A) (A)
                 (A) (A) (A) (A) (A) (A) (A) (A) (A) (A) (A) (A)
                 (A) (A) (A) (A) (A) (A) (A) (A) (A) (A) (A) (A)
                 (A) (A) (A) (A) (A) (A) (A) (A) (A) (A) (A) (A)
                 (A) (A) (A) (A) (A) (A) (A) (A) (A) (A) (A) (A)
                 (A) (A) (A) (A) (A) (A) (A) (A) (A) (A) (A) (A)
                 (A) (A) (A) (A) (A) (A) (A) (A) (A) (A) (A) (A)
                 (A) (A) (A) (A) (A) (A) (A) (A) (A) (A) (A) (A)
                 (A) (A) (A) (A) (A) (A) (A) (A) (A) (A) (A) (A)
                 (A) (A) (A) (A) (A) (A) (A) (A) (A) (A) (A) (A)
                 (A) (A) (A) (A) (A) (A) (A) (A) (A) (A) (A) (A)
                 (A) (A) (A) (A) (A) (A) (A) (A) (A) (A) (A) (A)
                 (A) (A) (A) (A) (A) (A) (A) (A) (A) (A) (A) (A)
                 (A) (A) (A) (A) (A) (A) (A) (A) (A) (A) (A) (A)
                 (A) (A) (A) (A) (A) (A) (A) (A) (A) (A) (A) (A)
                 (A) (A) (A) (A) (A) (A) (A) (A) (A) (A) (A) (A)
                 (A) (A) (A) (A) (A) (A) (A) (A) (A) (A) (A) (A)
                 (A) (A) (A) (A) (A) (A) (A) (A) (A) (A) (A) (A)
                 (A) (A) (A) (A) (A) (A) (A) (A) (A) (A) (A) (A)
                 (A) (A) (A) (A) (A) (A) (A) (A) (A) (A) (A) (A)
                 (A) (A) (A) (A) (A) (A) (A) (A) (A) (A) (A) (A)
                 (A) (A) (A) (A) (A) (A) (A) (A) (A) (A) (A) (A)
                 (A) (A) (A) (A) (A) (A) (A) (A) (A) (A) (A) (A)
                 (A) (A) (A) (A) (A) (A) (A) (A) (A) (A) (A) (A)
                 (A) (A) (A) (A) (A) (A) (A) (A) (A) (A) (A) (A)
                 (A) (A) (A) (A) (A) (A) (A) (A) (A) (A) (A) (A)
                 (A) (A) (A) (A) (A) (A) (A) (A) (A) (A) (A) (A)
                 (A) (A) (A) (A) (A) (A) (A) (A) (A) (A) (A) (A)
                 (A) (A) (A) (A) (A) (A) (A) (A) (A) (A) (A) (A)
                 (A) (A) (A) (A) (A) (A) (A) (A) (A) (A) (A) (A)
                 (A) (A) (A) (A) (A) (A) (A) (A) (A) (A) (A) (A)
                 (A) (A) (A) (A) (A) (A) (A) (A) (A) (A) (A) (A)
                 (A) (A) (A) (A) (A) (A) (A) (A) (A) (A) (A) (A)
                 (A) (A) (A) (A) (A) (A) (A) (A) (A) (A) (A) (A)
                 (A) (A) (A) (A) (A) (A) (A) (A) (A) (A) (A) (A)
                 (A) (A) (A) (A) (A) (A) (A) (A) (A) (A) (A) (A)
                 (A) (A) (A) (A) (A) (A) (A) (A) (A) (A) (A) (A)
                 (A) (A) (A) (A) (A) (A) (A) (A) (A) (A) (A) (A)
                 (A) (A) (A) (A) (A) (A) (A) (A) (A) (A) (A) (A)
                 (A) (A) (A) (A) (A) (A) (A) (A) (A) (A) (A) (A)
                 (A) (A) (A) (A) (A) (A) (A) (A) (A) (A) (A) (A)
                 (A) (A) (A) (A) (A) (A) (A) (A) (A) (A) (A) (A)
                 (A) (A) (A) (A) (A) (A) (A) (A) (A) (A) (A) (A)
                 (A) (A) (A) (A) (A) (A) (A) (A) (A) (A) (A) (A)
                 (A) (A) (A) (A) (A) (A) (A) (A) (A) (A) (A) (A)
 The electronic state is 1-A.
 Alpha  occ. eigenvalues --  -89.12670 -89.06038 -19.25007 -19.24436 -19.24348
 Alpha  occ. eigenvalues --  -19.18788 -14.43963 -14.43759 -14.42852 -14.38157
 Alpha  occ. eigenvalues --  -10.36337 -10.30440 -10.30300 -10.29827 -10.29754
 Alpha  occ. eigenvalues --  -10.28736 -10.28727 -10.28646 -10.28490 -10.28480
 Alpha  occ. eigenvalues --  -10.28424 -10.28390 -10.28013 -10.27454 -10.27403
 Alpha  occ. eigenvalues --  -10.27206 -10.26467 -10.26368 -10.25753 -10.25211
 Alpha  occ. eigenvalues --  -10.24501 -10.24298 -10.24250 -10.24100 -10.24071
 Alpha  occ. eigenvalues --  -10.24070 -10.24042 -10.24007 -10.23889 -10.23817
 Alpha  occ. eigenvalues --  -10.23540 -10.23538 -10.23508 -10.23458  -8.10693
 Alpha  occ. eigenvalues --   -8.04429  -6.04478  -6.03901  -6.03678  -5.98108
 Alpha  occ. eigenvalues --   -5.97742  -5.97388  -1.13897  -1.10922  -1.10837
 Alpha  occ. eigenvalues --   -1.07339  -1.05741  -1.00847  -0.94676  -0.94193
 Alpha  occ. eigenvalues --   -0.93346  -0.91347  -0.89807  -0.89766  -0.87965
 Alpha  occ. eigenvalues --   -0.86707  -0.82632  -0.81031  -0.80548  -0.80173
 Alpha  occ. eigenvalues --   -0.79102  -0.78980  -0.78588  -0.77494  -0.76942
 Alpha  occ. eigenvalues --   -0.75264  -0.73458  -0.72336  -0.70679  -0.68370
 Alpha  occ. eigenvalues --   -0.66487  -0.66146  -0.65678  -0.64953  -0.64700
 Alpha  occ. eigenvalues --   -0.64475  -0.63276  -0.62570  -0.60737  -0.59906
 Alpha  occ. eigenvalues --   -0.58744  -0.58148  -0.57186  -0.57115  -0.55917
 Alpha  occ. eigenvalues --   -0.55121  -0.54433  -0.54290  -0.53068  -0.52291
 Alpha  occ. eigenvalues --   -0.51909  -0.50909  -0.49674  -0.49579  -0.49357
 Alpha  occ. eigenvalues --   -0.49030  -0.48475  -0.47699  -0.47642  -0.47545
 Alpha  occ. eigenvalues --   -0.47468  -0.46436  -0.46231  -0.45537  -0.45251
 Alpha  occ. eigenvalues --   -0.45075  -0.44989  -0.44662  -0.44050  -0.43673
 Alpha  occ. eigenvalues --   -0.43462  -0.42693  -0.41875  -0.41811  -0.41502
 Alpha  occ. eigenvalues --   -0.41259  -0.41162  -0.40900  -0.40843  -0.40799
 Alpha  occ. eigenvalues --   -0.40226  -0.39731  -0.39338  -0.38518  -0.38475
 Alpha  occ. eigenvalues --   -0.38055  -0.37776  -0.37442  -0.36200  -0.35923
 Alpha  occ. eigenvalues --   -0.35429  -0.35336  -0.35239  -0.35154  -0.34725
 Alpha  occ. eigenvalues --   -0.33941  -0.33449  -0.33087  -0.32023  -0.29879
 Alpha  occ. eigenvalues --   -0.29860  -0.29068  -0.28715  -0.28130  -0.28055
 Alpha  occ. eigenvalues --   -0.27725  -0.26194  -0.25426  -0.23062  -0.19808
 Alpha virt. eigenvalues --   -0.12359  -0.07687  -0.05633  -0.03215  -0.01558
 Alpha virt. eigenvalues --   -0.01455  -0.01146  -0.00915  -0.00733  -0.00243
 Alpha virt. eigenvalues --    0.01436   0.01931   0.02250   0.02847   0.04085
 Alpha virt. eigenvalues --    0.04245   0.04743   0.04894   0.04999   0.05271
 Alpha virt. eigenvalues --    0.06171   0.06780   0.07067   0.07538   0.08048
 Alpha virt. eigenvalues --    0.08309   0.08710   0.09330   0.10245   0.10626
 Alpha virt. eigenvalues --    0.10780   0.11089   0.11170   0.11471   0.11610
 Alpha virt. eigenvalues --    0.11753   0.12312   0.13093   0.13245   0.13607
 Alpha virt. eigenvalues --    0.14000   0.14384   0.14394   0.14497   0.15090
 Alpha virt. eigenvalues --    0.15175   0.16041   0.16493   0.16766   0.17086
 Alpha virt. eigenvalues --    0.17509   0.17598   0.18743   0.19096   0.19605
 Alpha virt. eigenvalues --    0.20663   0.20988   0.21237   0.21500   0.21802
 Alpha virt. eigenvalues --    0.22662   0.23267   0.23543   0.23877   0.24309
 Alpha virt. eigenvalues --    0.24486   0.25694   0.25920   0.26331   0.27374
 Alpha virt. eigenvalues --    0.28183   0.28478   0.29100   0.29442   0.30156
 Alpha virt. eigenvalues --    0.30831   0.30971   0.31084   0.31301   0.31377
 Alpha virt. eigenvalues --    0.31551   0.31903   0.32126   0.32805   0.33133
 Alpha virt. eigenvalues --    0.33319   0.34355   0.34437   0.35239   0.36207
 Alpha virt. eigenvalues --    0.36479   0.36673   0.36873   0.37167   0.37385
 Alpha virt. eigenvalues --    0.37536   0.38064   0.38331   0.38562   0.38730
 Alpha virt. eigenvalues --    0.39123   0.39326   0.39361   0.39662   0.39809
 Alpha virt. eigenvalues --    0.40359   0.40387   0.40666   0.40897   0.41194
 Alpha virt. eigenvalues --    0.41331   0.41820   0.41884   0.42003   0.42287
 Alpha virt. eigenvalues --    0.42421   0.42614   0.42893   0.43746   0.44063
 Alpha virt. eigenvalues --    0.44188   0.44495   0.44600   0.44613   0.45317
 Alpha virt. eigenvalues --    0.45445   0.45535   0.45945   0.46736   0.47002
 Alpha virt. eigenvalues --    0.47177   0.47797   0.48063   0.48513   0.48644
 Alpha virt. eigenvalues --    0.48894   0.49207   0.49510   0.49946   0.50253
 Alpha virt. eigenvalues --    0.50484   0.51116   0.51380   0.51546   0.51861
 Alpha virt. eigenvalues --    0.52582   0.52624   0.52879   0.53221   0.53979
 Alpha virt. eigenvalues --    0.54304   0.55035   0.55108   0.55427   0.55559
 Alpha virt. eigenvalues --    0.56082   0.56421   0.57120   0.57280   0.57558
 Alpha virt. eigenvalues --    0.57687   0.58368   0.58623   0.59122   0.59353
 Alpha virt. eigenvalues --    0.59509   0.59758   0.60023   0.60230   0.60378
 Alpha virt. eigenvalues --    0.60760   0.61058   0.61709   0.61875   0.62177
 Alpha virt. eigenvalues --    0.62197   0.62622   0.62766   0.62947   0.63189
 Alpha virt. eigenvalues --    0.63440   0.64094   0.64661   0.65007   0.65101
 Alpha virt. eigenvalues --    0.65266   0.65734   0.66028   0.66145   0.66892
 Alpha virt. eigenvalues --    0.67184   0.67387   0.67745   0.68031   0.68337
 Alpha virt. eigenvalues --    0.68529   0.69359   0.69699   0.70028   0.70141
 Alpha virt. eigenvalues --    0.70510   0.71054   0.71430   0.71753   0.71969
 Alpha virt. eigenvalues --    0.72590   0.73403   0.74011   0.74912   0.75435
 Alpha virt. eigenvalues --    0.76135   0.76817   0.77332   0.77792   0.78381
 Alpha virt. eigenvalues --    0.78932   0.79295   0.79473   0.79715   0.79810
 Alpha virt. eigenvalues --    0.80100   0.80314   0.80744   0.80966   0.81661
 Alpha virt. eigenvalues --    0.82054   0.82489   0.82561   0.82959   0.83352
 Alpha virt. eigenvalues --    0.84088   0.84373   0.84692   0.85447   0.85582
 Alpha virt. eigenvalues --    0.85867   0.86228   0.86684   0.87103   0.87638
 Alpha virt. eigenvalues --    0.87771   0.88496   0.88583   0.88971   0.89577
 Alpha virt. eigenvalues --    0.89703   0.89968   0.90558   0.90894   0.91512
 Alpha virt. eigenvalues --    0.91599   0.92353   0.92974   0.93408   0.94052
 Alpha virt. eigenvalues --    0.94734   0.95450   0.95590   0.95809   0.96321
 Alpha virt. eigenvalues --    0.96524   0.97064   0.97068   0.98018   0.98288
 Alpha virt. eigenvalues --    0.98500   0.98810   0.99135   1.00009   1.00156
 Alpha virt. eigenvalues --    1.00682   1.01643   1.02005   1.02345   1.02530
 Alpha virt. eigenvalues --    1.03176   1.03203   1.03461   1.03905   1.04411
 Alpha virt. eigenvalues --    1.04578   1.05027   1.05584   1.06010   1.06669
 Alpha virt. eigenvalues --    1.07088   1.07262   1.07322   1.07957   1.08388
 Alpha virt. eigenvalues --    1.09018   1.09622   1.09819   1.10105   1.10851
 Alpha virt. eigenvalues --    1.11230   1.12185   1.12897   1.13122   1.13757
 Alpha virt. eigenvalues --    1.14158   1.15062   1.15446   1.16131   1.16653
 Alpha virt. eigenvalues --    1.16862   1.17382   1.18927   1.19548   1.20370
 Alpha virt. eigenvalues --    1.21894   1.22936   1.23363   1.24492   1.24773
 Alpha virt. eigenvalues --    1.24933   1.25888   1.26685   1.27424   1.28143
 Alpha virt. eigenvalues --    1.29233   1.30111   1.30360   1.31671   1.32616
 Alpha virt. eigenvalues --    1.33075   1.33810   1.35482   1.36259   1.36797
 Alpha virt. eigenvalues --    1.37037   1.37799   1.39462   1.39787   1.39846
 Alpha virt. eigenvalues --    1.40390   1.40992   1.42961   1.43104   1.43169
 Alpha virt. eigenvalues --    1.43299   1.43640   1.44161   1.44427   1.44945
 Alpha virt. eigenvalues --    1.46256   1.46409   1.46725   1.46921   1.47261
 Alpha virt. eigenvalues --    1.47796   1.48155   1.48430   1.48589   1.48977
 Alpha virt. eigenvalues --    1.49278   1.49394   1.50241   1.50701   1.51341
 Alpha virt. eigenvalues --    1.52215   1.53081   1.53257   1.53342   1.54350
 Alpha virt. eigenvalues --    1.54695   1.54792   1.55240   1.55970   1.56327
 Alpha virt. eigenvalues --    1.56831   1.57095   1.57508   1.58143   1.58232
 Alpha virt. eigenvalues --    1.58836   1.58982   1.59427   1.59596   1.59655
 Alpha virt. eigenvalues --    1.60107   1.60157   1.60578   1.60989   1.61290
 Alpha virt. eigenvalues --    1.61837   1.62399   1.62929   1.63734   1.64914
 Alpha virt. eigenvalues --    1.65691   1.66454   1.66714   1.66758   1.67587
 Alpha virt. eigenvalues --    1.67776   1.68390   1.68734   1.69014   1.69561
 Alpha virt. eigenvalues --    1.69761   1.70116   1.70142   1.71510   1.72376
 Alpha virt. eigenvalues --    1.72595   1.73209   1.73769   1.73813   1.74515
 Alpha virt. eigenvalues --    1.74746   1.74900   1.75906   1.76710   1.77222
 Alpha virt. eigenvalues --    1.77344   1.77631   1.77723   1.78089   1.78453
 Alpha virt. eigenvalues --    1.78852   1.79035   1.80281   1.81902   1.82632
 Alpha virt. eigenvalues --    1.82933   1.83275   1.85213   1.85251   1.85605
 Alpha virt. eigenvalues --    1.86049   1.86695   1.86975   1.87561   1.88302
 Alpha virt. eigenvalues --    1.88663   1.90073   1.90195   1.90529   1.90758
 Alpha virt. eigenvalues --    1.90940   1.91124   1.92162   1.92184   1.93040
 Alpha virt. eigenvalues --    1.93336   1.93778   1.93843   1.94239   1.95014
 Alpha virt. eigenvalues --    1.95418   1.95734   1.96994   1.97450   1.98665
 Alpha virt. eigenvalues --    1.99101   1.99396   2.00400   2.00799   2.01010
 Alpha virt. eigenvalues --    2.01391   2.01695   2.02048   2.02364   2.02558
 Alpha virt. eigenvalues --    2.03018   2.04104   2.04284   2.04804   2.05743
 Alpha virt. eigenvalues --    2.05917   2.06975   2.07414   2.07593   2.07816
 Alpha virt. eigenvalues --    2.08697   2.08862   2.09427   2.09690   2.10405
 Alpha virt. eigenvalues --    2.11233   2.11709   2.12148   2.12255   2.12947
 Alpha virt. eigenvalues --    2.13708   2.14134   2.16104   2.16495   2.18574
 Alpha virt. eigenvalues --    2.19175   2.19653   2.20827   2.21063   2.22647
 Alpha virt. eigenvalues --    2.22938   2.23643   2.25027   2.27568   2.28409
 Alpha virt. eigenvalues --    2.28864   2.28903   2.30450   2.31241   2.31531
 Alpha virt. eigenvalues --    2.33766   2.34075   2.34422   2.34676   2.34748
 Alpha virt. eigenvalues --    2.35009   2.35680   2.36615   2.36709   2.37083
 Alpha virt. eigenvalues --    2.38525   2.39170   2.40219   2.40456   2.41244
 Alpha virt. eigenvalues --    2.41490   2.41698   2.41941   2.44397   2.46334
 Alpha virt. eigenvalues --    2.46480   2.46589   2.47707   2.49168   2.49834
 Alpha virt. eigenvalues --    2.50662   2.50866   2.51211   2.52377   2.53624
 Alpha virt. eigenvalues --    2.53793   2.54296   2.55625   2.56238   2.56829
 Alpha virt. eigenvalues --    2.57157   2.57519   2.59029   2.60176   2.60279
 Alpha virt. eigenvalues --    2.60539   2.60958   2.61470   2.61805   2.62430
 Alpha virt. eigenvalues --    2.62747   2.63152   2.63419   2.63563   2.63592
 Alpha virt. eigenvalues --    2.63875   2.64329   2.64826   2.65773   2.66414
 Alpha virt. eigenvalues --    2.66579   2.67306   2.67851   2.68476   2.68773
 Alpha virt. eigenvalues --    2.68980   2.69259   2.69981   2.70308   2.70810
 Alpha virt. eigenvalues --    2.71063   2.71408   2.71717   2.72025   2.72760
 Alpha virt. eigenvalues --    2.73270   2.73506   2.74102   2.74602   2.75874
 Alpha virt. eigenvalues --    2.76432   2.76941   2.77240   2.78175   2.78858
 Alpha virt. eigenvalues --    2.78989   2.79950   2.81193   2.81715   2.81914
 Alpha virt. eigenvalues --    2.83160   2.84109   2.85092   2.85881   2.86512
 Alpha virt. eigenvalues --    2.86764   2.87023   2.88031   2.88498   2.88770
 Alpha virt. eigenvalues --    2.89177   2.90209   2.90862   2.91630   2.92833
 Alpha virt. eigenvalues --    2.93659   2.94001   2.94234   2.94591   2.95315
 Alpha virt. eigenvalues --    2.95938   2.96687   2.97102   2.98512   3.00066
 Alpha virt. eigenvalues --    3.00206   3.02435   3.02540   3.02684   3.03196
 Alpha virt. eigenvalues --    3.03920   3.04352   3.04740   3.04828   3.06132
 Alpha virt. eigenvalues --    3.07648   3.08878   3.09169   3.09769   3.11576
 Alpha virt. eigenvalues --    3.11799   3.13210   3.13995   3.14494   3.17972
 Alpha virt. eigenvalues --    3.19183   3.19959   3.21028   3.21446   3.22014
 Alpha virt. eigenvalues --    3.23153   3.23551   3.24555   3.24744   3.24818
 Alpha virt. eigenvalues --    3.28515   3.30208   3.32491   3.34164   3.34216
 Alpha virt. eigenvalues --    3.35219   3.36392   3.36414   3.37569   3.38170
 Alpha virt. eigenvalues --    3.38998   3.39361   3.40383   3.41004   3.41672
 Alpha virt. eigenvalues --    3.43912   3.45742   3.46730   3.48285   3.49786
 Alpha virt. eigenvalues --    3.50931   3.51335   3.52361   3.53325   3.55056
 Alpha virt. eigenvalues --    3.55239   3.57909   3.58166   3.58684   3.60329
 Alpha virt. eigenvalues --    3.62238   3.62886   3.63550   3.63816   3.70795
 Alpha virt. eigenvalues --    3.76877   3.77061   3.77169   3.77719   3.78375
 Alpha virt. eigenvalues --    3.80269   3.80750   3.82537   3.85181   3.88884
 Alpha virt. eigenvalues --    3.89991   3.91522   3.91925   3.93996   3.97684
 Alpha virt. eigenvalues --    3.98486   3.99452   4.01187   4.01860   4.06025
 Alpha virt. eigenvalues --    4.07459   4.07645   4.07914   4.11757   4.12151
 Alpha virt. eigenvalues --    4.12814   4.12972   4.13197   4.14032   4.15513
 Alpha virt. eigenvalues --    4.16229   4.18593   4.18834   4.19389   4.20319
 Alpha virt. eigenvalues --    4.21807   4.37531   4.49675   4.55571   4.63257
 Alpha virt. eigenvalues --    4.73026   4.75376   4.83217   4.85633   4.86252
 Alpha virt. eigenvalues --    4.86318   4.87499   4.93037   4.93136   4.96205
 Alpha virt. eigenvalues --    5.04872   5.06582   5.16187   5.31084   5.31200
 Alpha virt. eigenvalues --    5.31529   5.58400   5.79873   5.80421   5.82376
 Alpha virt. eigenvalues --    7.83355   7.84505  17.20885  17.29054  17.37262
 Alpha virt. eigenvalues --   17.40311  17.57837  17.59618  23.53386  23.57785
 Alpha virt. eigenvalues --   23.61804  23.64252  23.73060  23.81167  23.87826
 Alpha virt. eigenvalues --   23.91216  23.94904  23.95569  23.95670  23.98266
 Alpha virt. eigenvalues --   23.98991  23.99535  24.00665  24.01467  24.02714
 Alpha virt. eigenvalues --   24.02823  24.03847  24.10888  24.11028  24.13261
 Alpha virt. eigenvalues --   24.13841  24.14133  24.20501  24.20815  24.21041
 Alpha virt. eigenvalues --   24.22036  24.22969  24.23807  24.27029  24.27372
 Alpha virt. eigenvalues --   24.27649  24.52788  35.57845  35.70839  35.75037
 Alpha virt. eigenvalues --   35.94897  49.97332  50.04071  50.04167  50.14607
 Alpha virt. eigenvalues --  189.13160 189.15344
          Condensed to atoms (all electrons):
 Mulliken charges:
               1
     1  C   -0.178802
     2  O   -0.356940
     3  C    0.182743
     4  C   -0.140288
     5  C   -0.065359
     6  C    0.043597
     7  N   -0.548136
     8  C    0.215909
     9  C   -0.124140
    10  C   -0.044289
    11  C   -0.009647
    12  C   -0.105433
    13  C   -0.124655
    14  H    0.135291
    15  H    0.116140
    16  C   -0.286916
    17  S    0.357449
    18  C   -0.310496
    19  C   -0.003552
    20  C   -0.050961
    21  H    0.111121
    22  H    0.139564
    23  C    0.132572
    24  C   -0.137619
    25  C   -0.038539
    26  C   -0.082085
    27  C    0.150384
    28  C    0.166999
    29  N   -0.541228
    30  S    0.573148
    31  N   -0.529243
    32  C    0.044597
    33  C   -0.193228
    34  C    0.107736
    35  N   -0.277789
    36  C    0.466896
    37  O   -0.302950
    38  O   -0.305985
    39  H    0.250500
    40  H    0.127934
    41  H    0.143400
    42  H    0.120171
    43  H    0.105116
    44  H    0.134239
    45  C    0.043092
    46  C   -0.064789
    47  C   -0.140397
    48  C    0.182498
    49  C   -0.095980
    50  C   -0.062468
    51  H    0.120326
    52  H    0.119921
    53  O   -0.357395
    54  C   -0.178746
    55  H    0.128436
    56  H    0.127754
    57  H    0.145808
    58  H    0.122867
    59  H    0.116907
    60  C   -0.062509
    61  C   -0.095496
    62  H    0.120607
    63  H    0.120431
    64  H    0.116590
    65  H    0.122851
    66  H    0.146179
    67  H    0.128955
    68  H    0.127335
 Sum of Mulliken charges =  -0.00000
 Mulliken charges with hydrogens summed into heavy atoms:
               1
     1  C    0.223667
     2  O   -0.356940
     3  C    0.182743
     4  C   -0.017436
     5  C    0.051230
     6  C    0.043597
     7  N   -0.548136
     8  C    0.215909
     9  C    0.010099
    10  C    0.060828
    11  C   -0.009647
    12  C    0.010707
    13  C    0.010636
    16  C   -0.286916
    17  S    0.357449
    18  C   -0.310496
    19  C    0.136012
    20  C    0.060160
    23  C    0.132572
    24  C   -0.017448
    25  C    0.104861
    26  C   -0.082085
    27  C    0.150384
    28  C    0.166999
    29  N   -0.541228
    30  S    0.573148
    31  N   -0.529243
    32  C    0.172531
    33  C   -0.193228
    34  C    0.107736
    35  N   -0.277789
    36  C    0.466896
    37  O   -0.302950
    38  O   -0.055485
    45  C    0.043092
    46  C    0.052118
    47  C   -0.017531
    48  C    0.182498
    49  C    0.023940
    50  C    0.057858
    53  O   -0.357395
    54  C    0.223252
    60  C    0.057922
    61  C    0.025112
 Electronic spatial extent (au):  <R**2>=          58756.5891
 Charge=              0.0000 electrons
 Dipole moment (field-independent basis, Debye):
    X=             13.9691    Y=             -5.5984    Z=             -1.5914  Tot=             15.1331
 Quadrupole moment (field-independent basis, Debye-Ang):
   XX=           -294.2147   YY=           -263.3410   ZZ=           -265.2236
   XY=             63.5203   XZ=             16.2539   YZ=              5.2766
 Traceless Quadrupole moment (field-independent basis, Debye-Ang):
   XX=            -19.9549   YY=             10.9188   ZZ=              9.0362
   XY=             63.5203   XZ=             16.2539   YZ=              5.2766
 Octapole moment (field-independent basis, Debye-Ang**2):
  XXX=           1934.5974  YYY=            -67.4322  ZZZ=             -0.8018  XYY=            354.3588
  XXY=           -563.6884  XXZ=           -225.6873  XZZ=             17.1753  YZZ=              6.5570
  YYZ=              3.5204  XYZ=            111.4099
 Hexadecapole moment (field-independent basis, Debye-Ang**3):
 XXXX=         -75659.2867 YYYY=         -10043.1573 ZZZZ=           -742.9711 XXXY=           5596.3168
 XXXZ=           1576.8340 YYYX=           1709.2955 YYYZ=            162.9608 ZZZX=             23.8208
 ZZZY=            -27.1423 XXYY=         -13092.5179 XXZZ=         -11285.5435 YYZZ=          -1849.2559
 XXYZ=            348.4749 YYXZ=            288.6944 ZZXY=             14.8991
 N-N= 4.738910835546D+03 E-N=-1.563005150574D+04  KE= 2.616425816254D+03
 1\1\GINC-CN113\SP\RPBE1PBE TD-FC\6-311G(d,p)\C34H24N4O4S2\R2532\08-Jul
 -2021\0\\#N TD(NStates=10) PBE1PBE/6-311G(d,p)\\Name\\0,1\C,0,-7.85486
 5,6.024058,-0.403487\O,0,-6.930098,5.445576,0.507285\C,0,-6.551439,4.1
 51509,0.3146\C,0,-7.013084,3.328698,-0.716028\C,0,-6.548922,2.017843,-
 0.819648\C,0,-5.63931,1.50177,0.102244\N,0,-5.195402,0.146676,0.004616
 \C,0,-3.831426,-0.166409,0.016121\C,0,-3.376849,-1.423317,0.463194\C,0
 ,-2.028745,-1.730473,0.469197\C,0,-1.05804,-0.808007,0.035304\C,0,-1.5
 19446,0.446258,-0.403126\C,0,-2.865936,0.763307,-0.416735\H,0,-3.18270
 1,1.731893,-0.780526\H,0,-0.810972,1.178648,-0.774162\C,0,0.355386,-1.
 156756,0.040233\S,0,1.59829,0.071945,0.059677\C,0,2.889919,-1.128032,0
 .041858\C,0,2.339225,-2.399356,0.041965\C,0,0.933701,-2.413395,0.03944
 6\H,0,0.351646,-3.324188,0.004324\H,0,2.952581,-3.286838,0.029235\C,0,
 4.274635,-0.725308,0.027824\C,0,4.663327,0.611667,-0.041976\C,0,5.9980
 93,1.048696,-0.058794\C,0,7.081872,0.178411,-0.008897\C,0,6.743828,-1.
 21949,0.067869\C,0,5.36506,-1.673476,0.086099\N,0,5.25742,-3.000011,0.
 162402\S,0,6.774991,-3.613123,0.206354\N,0,7.627557,-2.214635,0.131885
 \C,0,8.479634,0.528438,-0.0263\C,0,9.115721,1.732156,-0.098297\C,0,8.4
 32816,2.976899,-0.214181\N,0,7.85974,3.978005,-0.29075\C,0,10.612934,1
 .84396,-0.167833\O,0,11.17017,2.794364,-0.639908\O,0,11.326407,0.79555
 9,0.320491\H,0,10.764773,0.217454,0.849414\H,0,9.119864,-0.348824,-0.0
 05237\H,0,6.16939,2.114206,-0.118876\H,0,3.896732,1.375424,-0.092792\H
 ,0,-1.717481,-2.694805,0.853227\H,0,-4.091832,-2.15159,0.822929\C,0,-6
 .182485,-0.88051,-0.109488\C,0,-7.243138,-0.949132,0.79286\C,0,-8.2261
 09,-1.931155,0.674294\C,0,-8.146178,-2.876241,-0.351647\C,0,-7.080856,
 -2.813495,-1.259788\C,0,-6.119176,-1.823881,-1.145719\H,0,-5.306643,-1
 .776838,-1.861042\H,0,-7.039224,-3.545811,-2.056842\O,0,-9.042096,-3.8
 82022,-0.555863\C,0,-10.140418,-4.002717,0.337475\H,0,-9.804647,-4.183
 713,1.364656\H,0,-10.777211,-3.11122,0.314833\H,0,-10.712574,-4.86124,
 -0.009852\H,0,-9.036138,-1.951624,1.390748\H,0,-7.307425,-0.223104,1.5
 94546\C,0,-5.19181,2.330782,1.141623\C,0,-5.633098,3.639345,1.240941\H
 ,0,-5.292087,4.286042,2.040189\H,0,-4.491923,1.941314,1.871452\H,0,-6.
 906439,1.386992,-1.624756\H,0,-7.721313,3.69391,-1.447422\H,0,-8.00989
 8,7.045443,-0.060366\H,0,-7.455829,6.042205,-1.423759\H,0,-8.812336,5.
 491153,-0.39674\\Version=ES64L-G16RevB.01\State=1-A\HF=-2624.3634255\R
 MSD=4.044e-09\PG=C01 [X(C34H24N4O4S2)]\\@


 AND HERE I AM, FOR ALL MY LORE,
 THE WRETCHED FOOL I WAS BEFORE.
 CALLED MASTER OF ARTS, AND DOCTOR TO BOOT,
 FOR TEN YEARS ALMOST I CONFUTE
 AND UP AND DOWN, WHEREVER IT GOES
 I DRAG MY STUDENTS BY THE NOSE --
 AND SEE THAT FOR ALL OUR SCIENCE AND ART
 WE CAN KNOW NOTHING.  IT BURNS MY HEART.

                                       -- FAUST
 Job cpu time:       0 days  3 hours 10 minutes  6.8 seconds.
 Elapsed time:       0 days  3 hours 11 minutes 32.3 seconds.
 File lengths (MBytes):  RWF=   5550 Int=      0 D2E=      0 Chk=    341 Scr=      1
 Normal termination of Gaussian 16 at Thu Jul  8 13:06:05 2021.
