 Entering Gaussian System, Link 0=g16
 Input=ES.com
 Output=ES.out
 Initial command:
 /usr/local/apps/gaussian/g16-b01-avx2//g16/l1.exe "/tmp/r2532.822177.maple/Gau-1398.inp" -scrdir="/tmp/r2532.822177.maple/"
 Entering Link 1 = /usr/local/apps/gaussian/g16-b01-avx2//g16/l1.exe PID=      1399.
  
 Copyright (c) 1988-2017, Gaussian, Inc.  All Rights Reserved.
  
 This is part of the Gaussian(R) 16 program.  It is based on
 the Gaussian(R) 09 system (copyright 2009, Gaussian, Inc.),
 the Gaussian(R) 03 system (copyright 2003, Gaussian, Inc.),
 the Gaussian(R) 98 system (copyright 1998, Gaussian, Inc.),
 the Gaussian(R) 94 system (copyright 1995, Gaussian, Inc.),
 the Gaussian 92(TM) system (copyright 1992, Gaussian, Inc.),
 the Gaussian 90(TM) system (copyright 1990, Gaussian, Inc.),
 the Gaussian 88(TM) system (copyright 1988, Gaussian, Inc.),
 the Gaussian 86(TM) system (copyright 1986, Carnegie Mellon
 University), and the Gaussian 82(TM) system (copyright 1983,
 Carnegie Mellon University). Gaussian is a federally registered
 trademark of Gaussian, Inc.
  
 This software contains proprietary and confidential information,
 including trade secrets, belonging to Gaussian, Inc.
  
 This software is provided under written license and may be
 used, copied, transmitted, or stored only in accord with that
 written license.
  
 The following legend is applicable only to US Government
 contracts under FAR:
  
                    RESTRICTED RIGHTS LEGEND
  
 Use, reproduction and disclosure by the US Government is
 subject to restrictions as set forth in subparagraphs (a)
 and (c) of the Commercial Computer Software - Restricted
 Rights clause in FAR 52.227-19.
  
 Gaussian, Inc.
 340 Quinnipiac St., Bldg. 40, Wallingford CT 06492
  
  
 ---------------------------------------------------------------
 Warning -- This program may not be used in any manner that
 competes with the business of Gaussian, Inc. or will provide
 assistance to any competitor of Gaussian, Inc.  The licensee
 of this program is prohibited from giving any competitor of
 Gaussian, Inc. access to this program.  By using this program,
 the user acknowledges that Gaussian, Inc. is engaged in the
 business of creating and licensing software in the field of
 computational chemistry and represents and warrants to the
 licensee that it is not a competitor of Gaussian, Inc. and that
 it will not use this program in any manner prohibited above.
 ---------------------------------------------------------------
  

 Cite this work as:
 Gaussian 16, Revision B.01,
 M. J. Frisch, G. W. Trucks, H. B. Schlegel, G. E. Scuseria, 
 M. A. Robb, J. R. Cheeseman, G. Scalmani, V. Barone, 
 G. A. Petersson, H. Nakatsuji, X. Li, M. Caricato, A. V. Marenich, 
 J. Bloino, B. G. Janesko, R. Gomperts, B. Mennucci, H. P. Hratchian, 
 J. V. Ortiz, A. F. Izmaylov, J. L. Sonnenberg, D. Williams-Young, 
 F. Ding, F. Lipparini, F. Egidi, J. Goings, B. Peng, A. Petrone, 
 T. Henderson, D. Ranasinghe, V. G. Zakrzewski, J. Gao, N. Rega, 
 G. Zheng, W. Liang, M. Hada, M. Ehara, K. Toyota, R. Fukuda, 
 J. Hasegawa, M. Ishida, T. Nakajima, Y. Honda, O. Kitao, H. Nakai, 
 T. Vreven, K. Throssell, J. A. Montgomery, Jr., J. E. Peralta, 
 F. Ogliaro, M. J. Bearpark, J. J. Heyd, E. N. Brothers, K. N. Kudin, 
 V. N. Staroverov, T. A. Keith, R. Kobayashi, J. Normand, 
 K. Raghavachari, A. P. Rendell, J. C. Burant, S. S. Iyengar, 
 J. Tomasi, M. Cossi, J. M. Millam, M. Klene, C. Adamo, R. Cammi, 
 J. W. Ochterski, R. L. Martin, K. Morokuma, O. Farkas, 
 J. B. Foresman, and D. J. Fox, Gaussian, Inc., Wallingford CT, 2016.
 
 ******************************************
 Gaussian 16:  ES64L-G16RevB.01 20-Dec-2017
                 4-Jun-2021 
 ******************************************
 %mem=8gb
 ---------------------------------------
 #N TD(NStates=10) CAM-B3lYP/6-311G(d,p)
 ---------------------------------------
 1/38=1,172=1/1;
 2/12=2,17=6,18=5,40=1/2;
 3/5=4,6=6,7=101,11=9,25=1,30=1,74=-40/1,2,3,8;
 4//1;
 5/5=2,38=5/2;
 8/6=1,10=2,108=10/1;
 9/41=10,42=1,70=2/14;
 6/7=2,8=2,9=2,10=2/1;
 99/5=1,9=1/99;
 ----
 Name
 ----
 Symbolic Z-matrix:
 Charge =  0 Multiplicity = 1
 6                    -8.18249   7.12857  -1.10595 
 8                    -7.42423   6.34312  -0.19744 
 6                    -7.5943    4.99053  -0.21021 
 6                    -8.46962   4.30292  -1.0542 
 6                    -8.55607   2.91276  -0.98279 
 6                    -7.79456   2.18938  -0.06524 
 7                    -7.91427   0.76933   0.02046 
 6                    -6.77422  -0.05077   0.00591 
 6                    -6.76859  -1.29719   0.65948 
 6                    -5.6441   -2.1045    0.64103 
 6                    -4.46769  -1.71623  -0.02414 
 6                    -4.47861  -0.4671   -0.66724 
 6                    -5.59988   0.34647  -0.65834 
 1                    -5.57691   1.29358  -1.18167 
 1                    -3.60271  -0.13803  -1.21567 
 6                    -3.29801  -2.59042  -0.04035 
 16                   -1.67925  -1.94831  -0.23798 
 6                    -0.95647  -3.54292  -0.13865 
 6                    -1.93757  -4.49439   0.04475 
 6                    -3.24434  -3.96144   0.09347 
 1                    -4.13075  -4.57135   0.20492 
 1                    -1.7165   -5.548     0.15327 
 6                     0.46609  -3.75546  -0.25352 
 16                    1.62597  -2.48934   0.09096 
 6                     2.98241  -3.54288  -0.26359 
 6                     2.52668  -4.8025   -0.6028 
 6                     1.12366  -4.92082  -0.59969 
 1                     0.5986   -5.82419  -0.87889 
 1                     3.19202  -5.60749  -0.88481 
 6                     4.3482   -3.09528  -0.18096 
 6                     5.48985  -3.87575  -0.10766 
 6                     6.68132  -3.1349   -0.04921 
 6                     6.49506  -1.76173  -0.0655 
 16                    4.77339  -1.40069  -0.18014 
 6                     7.47084  -0.70005  -0.00417 
 6                     7.11059   0.64547   0.0181 
 6                     8.02713   1.70904   0.07505 
 6                     9.40489   1.52292   0.11638 
 6                     9.83934   0.14915   0.09659 
 6                     8.89384  -0.95133   0.03749 
 7                     9.48662  -2.14553   0.02673 
 16                    11.10304  -1.88727   0.08721 
 7                     11.10984  -0.25003   0.12872 
 6                     10.41614   2.5474    0.17702 
 6                     10.31804   3.90763   0.20624 
 6                     9.08674   4.62455   0.17921 
 7                     8.07401   5.18156   0.15628 
 6                     11.52734   4.77024   0.2703 
 8                     12.68259   4.06085   0.29514 
 1                     13.39522   4.71429   0.33615 
 8                     11.50277   5.97554   0.29799 
 1                     11.42922   2.16391   0.20395 
 1                     7.62185   2.7108    0.08811 
 1                     6.0591    0.90584  -0.00696 
 1                     7.6642   -3.57476   0.01645 
 1                     5.45769  -4.95616  -0.07315 
 1                    -5.66562  -3.04124   1.18587 
 1                    -7.64961  -1.62062   1.19872 
 6                    -9.22024   0.20113   0.11517 
 6                    -10.13961   0.68271   1.04701 
 6                    -11.42803   0.15491   1.12779 
 6                    -11.80829  -0.88771   0.2795 
 6                    -10.88714  -1.38091  -0.65371 
 6                    -9.61665  -0.83716  -0.74146 
 1                    -8.91767  -1.21786  -1.47661 
 1                    -11.19929  -2.18243  -1.31221 
 8                    -13.03519  -1.48295   0.27622 
 6                    -14.01309  -1.02042   1.19658 
 1                    -13.68725  -1.1581    2.2338 
 1                    -14.25482   0.03541   1.02963 
 1                    -14.90055  -1.62474   1.01626 
 1                    -12.11458   0.55781   1.86016 
 1                    -9.85      1.48633   1.71356 
 6                    -6.92769   2.8905    0.78659 
 6                    -6.82057   4.26876   0.70812 
 1                    -6.15277   4.81606   1.36226 
 1                    -6.33444   2.34484   1.51064 
 1                    -9.23205   2.38559  -1.64544 
 1                    -9.07899   4.83012  -1.77583 
 1                    -7.89437   8.1615   -0.91818 
 1                    -7.95366   6.87344  -2.14684 
 1                    -9.25887   7.01634  -0.93299 
 
 Stoichiometry    C42H28N4O4S4
 Framework group  C1[X(C42H28N4O4S4)]
 Deg. of freedom   240
 Full point group                 C1      NOp   1
 Largest Abelian subgroup         C1      NOp   1
 Largest concise Abelian subgroup C1      NOp   1
                         Standard orientation:                         
 ---------------------------------------------------------------------
 Center     Atomic      Atomic             Coordinates (Angstroms)
 Number     Number       Type             X           Y           Z
 ---------------------------------------------------------------------
      1          6           0       -8.182487    7.128568   -1.105953
      2          8           0       -7.424227    6.343120   -0.197444
      3          6           0       -7.594299    4.990534   -0.210206
      4          6           0       -8.469618    4.302920   -1.054202
      5          6           0       -8.556066    2.912758   -0.982790
      6          6           0       -7.794556    2.189376   -0.065242
      7          7           0       -7.914267    0.769334    0.020459
      8          6           0       -6.774216   -0.050771    0.005910
      9          6           0       -6.768593   -1.297194    0.659475
     10          6           0       -5.644102   -2.104499    0.641031
     11          6           0       -4.467692   -1.716233   -0.024144
     12          6           0       -4.478614   -0.467096   -0.667243
     13          6           0       -5.599876    0.346473   -0.658344
     14          1           0       -5.576908    1.293575   -1.181667
     15          1           0       -3.602711   -0.138034   -1.215670
     16          6           0       -3.298009   -2.590422   -0.040351
     17         16           0       -1.679247   -1.948306   -0.237981
     18          6           0       -0.956467   -3.542922   -0.138653
     19          6           0       -1.937570   -4.494386    0.044753
     20          6           0       -3.244337   -3.961437    0.093471
     21          1           0       -4.130751   -4.571350    0.204916
     22          1           0       -1.716499   -5.548000    0.153267
     23          6           0        0.466090   -3.755461   -0.253515
     24         16           0        1.625967   -2.489340    0.090960
     25          6           0        2.982405   -3.542881   -0.263590
     26          6           0        2.526680   -4.802500   -0.602800
     27          6           0        1.123658   -4.920823   -0.599690
     28          1           0        0.598595   -5.824193   -0.878894
     29          1           0        3.192024   -5.607489   -0.884805
     30          6           0        4.348203   -3.095277   -0.180959
     31          6           0        5.489847   -3.875750   -0.107659
     32          6           0        6.681322   -3.134897   -0.049206
     33          6           0        6.495056   -1.761727   -0.065502
     34         16           0        4.773393   -1.400692   -0.180140
     35          6           0        7.470840   -0.700054   -0.004172
     36          6           0        7.110588    0.645469    0.018098
     37          6           0        8.027128    1.709041    0.075048
     38          6           0        9.404895    1.522915    0.116380
     39          6           0        9.839338    0.149149    0.096587
     40          6           0        8.893835   -0.951326    0.037490
     41          7           0        9.486622   -2.145534    0.026726
     42         16           0       11.103043   -1.887273    0.087207
     43          7           0       11.109838   -0.250030    0.128721
     44          6           0       10.416144    2.547404    0.177016
     45          6           0       10.318038    3.907627    0.206239
     46          6           0        9.086736    4.624554    0.179205
     47          7           0        8.074009    5.181561    0.156275
     48          6           0       11.527344    4.770239    0.270304
     49          8           0       12.682594    4.060852    0.295141
     50          1           0       13.395218    4.714294    0.336154
     51          8           0       11.502773    5.975544    0.297992
     52          1           0       11.429221    2.163911    0.203953
     53          1           0        7.621846    2.710797    0.088106
     54          1           0        6.059098    0.905844   -0.006957
     55          1           0        7.664200   -3.574760    0.016447
     56          1           0        5.457693   -4.956156   -0.073146
     57          1           0       -5.665615   -3.041239    1.185874
     58          1           0       -7.649607   -1.620623    1.198724
     59          6           0       -9.220243    0.201134    0.115168
     60          6           0      -10.139608    0.682707    1.047013
     61          6           0      -11.428031    0.154911    1.127792
     62          6           0      -11.808286   -0.887709    0.279495
     63          6           0      -10.887142   -1.380914   -0.653708
     64          6           0       -9.616649   -0.837159   -0.741459
     65          1           0       -8.917672   -1.217857   -1.476612
     66          1           0      -11.199291   -2.182431   -1.312207
     67          8           0      -13.035193   -1.482953    0.276218
     68          6           0      -14.013089   -1.020418    1.196578
     69          1           0      -13.687246   -1.158105    2.233800
     70          1           0      -14.254822    0.035405    1.029631
     71          1           0      -14.900545   -1.624742    1.016261
     72          1           0      -12.114575    0.557814    1.860159
     73          1           0       -9.849997    1.486332    1.713561
     74          6           0       -6.927688    2.890499    0.786592
     75          6           0       -6.820574    4.268759    0.708116
     76          1           0       -6.152769    4.816060    1.362263
     77          1           0       -6.334436    2.344841    1.510642
     78          1           0       -9.232054    2.385586   -1.645441
     79          1           0       -9.078993    4.830121   -1.775834
     80          1           0       -7.894368    8.161501   -0.918177
     81          1           0       -7.953658    6.873436   -2.146840
     82          1           0       -9.258874    7.016340   -0.932988
 ---------------------------------------------------------------------
 Rotational constants (GHZ):           0.0651937           0.0099802           0.0087139
 Standard basis: 6-311G(d,p) (5D, 7F)
 There are  1226 symmetry adapted cartesian basis functions of A   symmetry.
 There are  1172 symmetry adapted basis functions of A   symmetry.
  1172 basis functions,  2008 primitive gaussians,  1226 cartesian basis functions
   202 alpha electrons      202 beta electrons
       nuclear repulsion energy      6545.1772242524 Hartrees.
 NAtoms=   82 NActive=   82 NUniq=   82 SFac= 1.00D+00 NAtFMM=   60 NAOKFM=T Big=T
 Integral buffers will be    131072 words long.
 Raffenetti 1 integral format.
 Two-electron integral symmetry is turned on.
 One-electron integrals computed using PRISM.
 NBasis=  1172 RedAO= T EigKep=  1.18D-04  NBF=  1172
 NBsUse=  1172 1.00D-06 EigRej= -1.00D+00 NBFU=  1172
 ExpMin= 7.71D-02 ExpMax= 9.34D+04 ExpMxC= 3.17D+03 IAcc=3 IRadAn=         5 AccDes= 0.00D+00
 Harris functional with IExCor=20419 and IRadAn=       5 diagonalized for initial guess.
 HarFok:  IExCor=20419 AccDes= 0.00D+00 IRadAn=         5 IDoV= 1 UseB2=F ITyADJ=14
 ICtDFT=  3500011 ScaDFX=  1.000000  1.000000  1.000000  1.000000
 FoFCou: FMM=F IPFlag=           0 FMFlag=      100000 FMFlg1=        2001
         NFxFlg=           0 DoJE=T BraDBF=F KetDBF=T FulRan=T
         wScrn=  0.000000 ICntrl=       500 IOpCl=  0 I1Cent=   200000004 NGrid=           0
         NMat0=    1 NMatS0=      1 NMatT0=    0 NMatD0=    1 NMtDS0=    0 NMtDT0=    0
 Petite list used in FoFCou.
 Requested convergence on RMS density matrix=1.00D-08 within 128 cycles.
 Requested convergence on MAX density matrix=1.00D-06.
 Requested convergence on             energy=1.00D-06.
 No special actions if energy rises.
 Integral accuracy reduced to 1.0D-05 until final iterations.
 Initial convergence to 1.0D-05 achieved.  Increase integral accuracy.
 SCF Done:  E(RCAM-B3LYP) =  -3729.40099077     A.U. after   17 cycles
            NFock= 17  Conv=0.64D-08     -V/T= 2.0025
 DoSCS=F DFT=T ScalE2(SS,OS)=  1.000000  1.000000
 ExpMin= 7.71D-02 ExpMax= 9.34D+04 ExpMxC= 3.17D+03 IAcc=3 IRadAn=         5 AccDes= 0.00D+00
 HarFok:  IExCor=  205 AccDes= 0.00D+00 IRadAn=         5 IDoV=-2 UseB2=F ITyADJ=14
 ICtDFT= 12500011 ScaDFX=  1.000000  1.000000  1.000000  1.000000
 GSVD:  LWork=       -5460 too small for GESVD, short by       25550 words or       25550 for optimal perf.
 Range of M.O.s used for correlation:    71  1172
 NBasis=  1172 NAE=   202 NBE=   202 NFC=    70 NFV=     0
 NROrb=   1102 NOA=   132 NOB=   132 NVA=   970 NVB=   970

 **** Warning!!: The largest alpha MO coefficient is  0.14375930D+02

 Orbital symmetries:
       Occupied  (A) (A) (A) (A) (A) (A) (A) (A) (A) (A) (A) (A)
                 (A) (A) (A) (A) (A) (A) (A) (A) (A) (A) (A) (A)
                 (A) (A) (A) (A) (A) (A) (A) (A) (A) (A) (A) (A)
                 (A) (A) (A) (A) (A) (A) (A) (A) (A) (A) (A) (A)
                 (A) (A) (A) (A) (A) (A) (A) (A) (A) (A) (A) (A)
                 (A) (A) (A) (A) (A) (A) (A) (A) (A) (A) (A) (A)
                 (A) (A) (A) (A) (A) (A) (A) (A) (A) (A) (A) (A)
                 (A) (A) (A) (A) (A) (A) (A) (A) (A) (A) (A) (A)
                 (A) (A) (A) (A) (A) (A) (A) (A) (A) (A) (A) (A)
                 (A) (A) (A) (A) (A) (A) (A) (A) (A) (A) (A) (A)
                 (A) (A) (A) (A) (A) (A) (A) (A) (A) (A) (A) (A)
                 (A) (A) (A) (A) (A) (A) (A) (A) (A) (A) (A) (A)
                 (A) (A) (A) (A) (A) (A) (A) (A) (A) (A) (A) (A)
                 (A) (A) (A) (A) (A) (A) (A) (A) (A) (A) (A) (A)
                 (A) (A) (A) (A) (A) (A) (A) (A) (A) (A) (A) (A)
                 (A) (A) (A) (A) (A) (A) (A) (A) (A) (A) (A) (A)
                 (A) (A) (A) (A) (A) (A) (A) (A) (A) (A)
       Virtual   (A) (A) (A) (A) (A) (A) (A) (A) (A) (A) (A) (A)
                 (A) (A) (A) (A) (A) (A) (A) (A) (A) (A) (A) (A)
                 (A) (A) (A) (A) (A) (A) (A) (A) (A) (A) (A) (A)
                 (A) (A) (A) (A) (A) (A) (A) (A) (A) (A) (A) (A)
                 (A) (A) (A) (A) (A) (A) (A) (A) (A) (A) (A) (A)
                 (A) (A) (A) (A) (A) (A) (A) (A) (A) (A) (A) (A)
                 (A) (A) (A) (A) (A) (A) (A) (A) (A) (A) (A) (A)
                 (A) (A) (A) (A) (A) (A) (A) (A) (A) (A) (A) (A)
                 (A) (A) (A) (A) (A) (A) (A) (A) (A) (A) (A) (A)
                 (A) (A) (A) (A) (A) (A) (A) (A) (A) (A) (A) (A)
                 (A) (A) (A) (A) (A) (A) (A) (A) (A) (A) (A) (A)
                 (A) (A) (A) (A) (A) (A) (A) (A) (A) (A) (A) (A)
                 (A) (A) (A) (A) (A) (A) (A) (A) (A) (A) (A) (A)
                 (A) (A) (A) (A) (A) (A) (A) (A) (A) (A) (A) (A)
                 (A) (A) (A) (A) (A) (A) (A) (A) (A) (A) (A) (A)
                 (A) (A) (A) (A) (A) (A) (A) (A) (A) (A) (A) (A)
                 (A) (A) (A) (A) (A) (A) (A) (A) (A) (A) (A) (A)
                 (A) (A) (A) (A) (A) (A) (A) (A) (A) (A) (A) (A)
                 (A) (A) (A) (A) (A) (A) (A) (A) (A) (A) (A) (A)
                 (A) (A) (A) (A) (A) (A) (A) (A) (A) (A) (A) (A)
                 (A) (A) (A) (A) (A) (A) (A) (A) (A) (A) (A) (A)
                 (A) (A) (A) (A) (A) (A) (A) (A) (A) (A) (A) (A)
                 (A) (A) (A) (A) (A) (A) (A) (A) (A) (A) (A) (A)
                 (A) (A) (A) (A) (A) (A) (A) (A) (A) (A) (A) (A)
                 (A) (A) (A) (A) (A) (A) (A) (A) (A) (A) (A) (A)
                 (A) (A) (A) (A) (A) (A) (A) (A) (A) (A) (A) (A)
                 (A) (A) (A) (A) (A) (A) (A) (A) (A) (A) (A) (A)
                 (A) (A) (A) (A) (A) (A) (A) (A) (A) (A) (A) (A)
                 (A) (A) (A) (A) (A) (A) (A) (A) (A) (A) (A) (A)
                 (A) (A) (A) (A) (A) (A) (A) (A) (A) (A) (A) (A)
                 (A) (A) (A) (A) (A) (A) (A) (A) (A) (A) (A) (A)
                 (A) (A) (A) (A) (A) (A) (A) (A) (A) (A) (A) (A)
                 (A) (A) (A) (A) (A) (A) (A) (A) (A) (A) (A) (A)
                 (A) (A) (A) (A) (A) (A) (A) (A) (A) (A) (A) (A)
                 (A) (A) (A) (A) (A) (A) (A) (A) (A) (A) (A) (A)
                 (A) (A) (A) (A) (A) (A) (A) (A) (A) (A) (A) (A)
                 (A) (A) (A) (A) (A) (A) (A) (A) (A) (A) (A) (A)
                 (A) (A) (A) (A) (A) (A) (A) (A) (A) (A) (A) (A)
                 (A) (A) (A) (A) (A) (A) (A) (A) (A) (A) (A) (A)
                 (A) (A) (A) (A) (A) (A) (A) (A) (A) (A) (A) (A)
                 (A) (A) (A) (A) (A) (A) (A) (A) (A) (A) (A) (A)
                 (A) (A) (A) (A) (A) (A) (A) (A) (A) (A) (A) (A)
                 (A) (A) (A) (A) (A) (A) (A) (A) (A) (A) (A) (A)
                 (A) (A) (A) (A) (A) (A) (A) (A) (A) (A) (A) (A)
                 (A) (A) (A) (A) (A) (A) (A) (A) (A) (A) (A) (A)
                 (A) (A) (A) (A) (A) (A) (A) (A) (A) (A) (A) (A)
                 (A) (A) (A) (A) (A) (A) (A) (A) (A) (A) (A) (A)
                 (A) (A) (A) (A) (A) (A) (A) (A) (A) (A) (A) (A)
                 (A) (A) (A) (A) (A) (A) (A) (A) (A) (A) (A) (A)
                 (A) (A) (A) (A) (A) (A) (A) (A) (A) (A) (A) (A)
                 (A) (A) (A) (A) (A) (A) (A) (A) (A) (A) (A) (A)
                 (A) (A) (A) (A) (A) (A) (A) (A) (A) (A) (A) (A)
                 (A) (A) (A) (A) (A) (A) (A) (A) (A) (A) (A) (A)
                 (A) (A) (A) (A) (A) (A) (A) (A) (A) (A) (A) (A)
                 (A) (A) (A) (A) (A) (A) (A) (A) (A) (A) (A) (A)
                 (A) (A) (A) (A) (A) (A) (A) (A) (A) (A) (A) (A)
                 (A) (A) (A) (A) (A) (A) (A) (A) (A) (A) (A) (A)
                 (A) (A) (A) (A) (A) (A) (A) (A) (A) (A) (A) (A)
                 (A) (A) (A) (A) (A) (A) (A) (A) (A) (A) (A) (A)
                 (A) (A) (A) (A) (A) (A) (A) (A) (A) (A) (A) (A)
                 (A) (A) (A) (A) (A) (A) (A) (A) (A) (A) (A) (A)
                 (A) (A) (A) (A) (A) (A) (A) (A) (A) (A) (A) (A)
                 (A) (A) (A) (A) (A) (A) (A) (A) (A) (A) (A) (A)
                 (A) (A) (A) (A) (A) (A) (A) (A) (A) (A) (A) (A)
                 (A) (A) (A) (A) (A) (A) (A) (A) (A) (A) (A) (A)
                 (A) (A) (A) (A) (A) (A) (A) (A) (A) (A) (A) (A)
                 (A) (A) (A) (A) (A) (A) (A) (A) (A) (A) (A) (A)
                 (A) (A) (A) (A) (A) (A) (A) (A) (A) (A) (A) (A)
                 (A) (A) (A) (A) (A) (A) (A) (A) (A) (A) (A) (A)
                 (A) (A) (A) (A) (A) (A) (A) (A) (A) (A) (A) (A)
                 (A) (A) (A) (A) (A) (A) (A) (A) (A) (A) (A) (A)
                 (A) (A) (A) (A) (A) (A) (A) (A) (A) (A) (A) (A)
                 (A) (A) (A) (A) (A) (A) (A) (A) (A) (A) (A) (A)
                 (A) (A) (A) (A) (A) (A) (A) (A) (A) (A) (A) (A)
                 (A) (A) (A) (A) (A) (A) (A) (A) (A) (A) (A) (A)
                 (A) (A) (A) (A) (A) (A) (A) (A) (A) (A) (A) (A)
                 (A) (A) (A) (A) (A) (A) (A) (A) (A) (A) (A) (A)
                 (A) (A) (A) (A) (A) (A) (A) (A) (A) (A) (A) (A)
                 (A) (A) (A) (A) (A) (A) (A) (A) (A) (A) (A) (A)
                 (A) (A) (A) (A) (A) (A) (A) (A) (A) (A) (A) (A)
                 (A) (A) (A) (A) (A) (A) (A) (A) (A) (A)
    40 initial guesses have been made.
 Convergence on wavefunction:    0.001000000000000
 Iteration     1 Dimension    40 NMult     0 NNew     40
 CISAX will form    40 AO SS matrices at one time.
 New state      3 was old state      4
 New state      4 was old state      3
 New state      6 was old state      7
 New state      7 was old state      8
 New state      8 was old state     19
 New state      9 was old state     11
 New state     10 was old state     16
 Iteration     2 Dimension    60 NMult    40 NNew     20
 New state      7 was old state      8
 New state      8 was old state      7
 Iteration     3 Dimension    80 NMult    60 NNew     20
 Iteration     4 Dimension   100 NMult    80 NNew     20
 Iteration     5 Dimension   120 NMult   100 NNew     20
 Iteration     6 Dimension   138 NMult   120 NNew     18
 Iteration     7 Dimension   148 NMult   138 NNew     10
 Iteration     8 Dimension   154 NMult   148 NNew      6
 Iteration     9 Dimension   158 NMult   154 NNew      4
 Iteration    10 Dimension   162 NMult   158 NNew      4
 Iteration    11 Dimension   164 NMult   162 NNew      2
 ***********************************************************************
 Excited states from <AA,BB:AA,BB> singles matrix:
 ***********************************************************************
 
 Ground to excited state transition densities written to RWF  633
 Ground to excited state transition electric dipole moments (Au):
       state          X           Y           Z        Dip. S.      Osc.
         1        -4.4453     -1.8999     -0.1125     23.3826      1.3175
         2        -0.4692      1.6556      0.0858      2.9685      0.2186
         3        -3.0320      1.1875      0.0638     10.6069      0.8520
         4         0.4840      0.1894      0.0050      0.2702      0.0240
         5         0.0806     -2.0551     -0.0856      4.2375      0.4009
         6        -0.2562     -0.4250     -0.0139      0.2464      0.0242
         7         0.1628     -0.1714     -0.4931      0.2990      0.0298
         8        -0.4996      0.0143     -0.0111      0.2500      0.0258
         9        -0.7584      0.8226     -0.0707      1.2569      0.1328
        10        -0.3046      0.2362     -0.0066      0.1486      0.0158
 Ground to excited state transition velocity dipole moments (Au):
       state          X           Y           Z        Dip. S.      Osc.
         1         0.3729      0.1603      0.0098      0.1648      1.3002
         2         0.0477     -0.1827     -0.0090      0.0358      0.2158
         3         0.3625     -0.1430     -0.0068      0.1519      0.8404
         4        -0.0686     -0.0258     -0.0012      0.0054      0.0269
         5        -0.0163      0.2908      0.0119      0.0850      0.3992
         6         0.0341      0.0577      0.0015      0.0045      0.0203
         7        -0.0251      0.0243      0.0904      0.0094      0.0419
         8         0.0711     -0.0033      0.0012      0.0051      0.0218
         9         0.1158     -0.1243      0.0112      0.0290      0.1219
        10         0.0384     -0.0256      0.0008      0.0021      0.0089
 Ground to excited state transition magnetic dipole moments (Au):
       state          X           Y           Z
         1         0.0109     -0.2773      5.0334
         2         0.0503      0.0524     -0.7144
         3         0.0849     -0.1595      3.2913
         4        -0.0183      0.0227     -2.0360
         5        -0.1129     -0.1464      2.1864
         6         0.0344     -0.0379      2.8377
         7         0.0805      1.3441     -1.3777
         8         0.1075      0.0094      0.1134
         9         0.0455     -0.0011     -1.0119
        10        -0.0702     -0.1169     -1.0579
 Ground to excited state transition velocity quadrupole moments (Au):
       state          XX          YY          ZZ          XY          XZ          YZ
         1         4.3861      0.0860     -0.0299      2.0581      0.1480      0.0227
         2        -4.1289     -0.2825     -0.0031     -2.0095     -0.1062      0.0293
         3        -3.1143      0.0210     -0.0371     -0.9537     -0.0239      0.0932
         4         1.4815     -1.0946      0.0299     -2.8835     -0.0937     -0.0970
         5         6.3285      0.5417      0.0149      1.6445      0.0921     -0.0518
         6        -3.4337      1.3686     -0.0389      4.4956      0.1371      0.1105
         7         0.2160      0.1322      0.0139     -0.1220     -1.3929      0.1443
         8         0.6357     -0.1088      0.0156      1.3380      0.0051      0.0261
         9         0.2769     -1.3051     -0.0302     -1.6996     -0.0554     -0.0983
        10         3.6523      0.0297      0.0161     -0.9823      0.1900     -0.1026
 <0|del|b> * <b|rxdel|0> + <0|del|b> * <b|delr+rdel|0>
 Rotatory Strengths (R) in cgs (10**-40 erg-esu-cm/Gauss)
       state          XX          YY          ZZ    R(velocity)    E-M Angle
         1         6.9328    175.0738   -105.0388     25.6559       89.74
         2       -14.5270    -25.0377     34.6601     -1.6349       90.32
         3        10.1550    104.5845     68.1953     60.9782       88.61
         4         7.6582     18.2830     -9.4457      5.4985       88.81
         5       -59.3072     22.7353    -36.8735    -24.4818       91.32
         6         1.3611      6.0815      7.5096      4.9841       89.06
         7      -163.0629   -281.5094      0.9795   -147.8643      120.19
         8         3.8947     18.3922     13.1137     11.8002       45.96
         9       -83.0531      3.6061     52.7894     -8.8859       91.99
        10        13.5890    -14.8210     -1.4015     -0.8778       90.69
 1/2[<0|r|b>*<b|rxdel|0> + (<0|rxdel|b>*<b|r|0>)*]
 Rotatory Strengths (R) in cgs (10**-40 erg-esu-cm/Gauss)
       state          XX          YY          ZZ     R(length)
         1        34.3895   -372.5581    400.5259     20.7858
         2        16.6919    -61.3814     43.3709     -0.4395
         3       182.0890    133.9405   -148.5063     55.8411
         4         6.2671     -3.0384      7.1590      3.4626
         5         6.4382   -212.7664    132.3887    -24.6465
         6         6.2374    -11.3984     27.9923      7.6104
         7        -9.2691    162.8996   -480.3696   -108.9130
         8        37.9817     -0.0953      0.8925     12.9263
         9        24.3849      0.6255    -50.5881     -8.5259
        10       -15.1292     19.5280     -4.9365     -0.1792
  1/2[<0|del|b>*<b|r|0> + (<0|r|b>*<b|del|0>)*] (Au)
       state          X           Y           Z        Dip. S.   Osc.(frdel)
         1        -1.6576     -0.3045     -0.0011      1.9633      1.3088
         2        -0.0224     -0.3026     -0.0008      0.3257      0.2171
         3        -1.0990     -0.1698     -0.0004      1.2693      0.8462
         4        -0.0332     -0.0049     -0.0000      0.0381      0.0254
         5        -0.0013     -0.5977     -0.0010      0.6000      0.4000
         6        -0.0087     -0.0245     -0.0000      0.0333      0.0222
         7        -0.0041     -0.0042     -0.0446      0.0528      0.0352
         8        -0.0355     -0.0000     -0.0000      0.0356      0.0237
         9        -0.0878     -0.1022     -0.0008      0.1908      0.1272
        10        -0.0117     -0.0061     -0.0000      0.0177      0.0118

 Excitation energies and oscillator strengths:
 
 Excited State   1:      Singlet-A      2.2999 eV  539.10 nm  f=1.3175  <S**2>=0.000
     200 -> 203       -0.18528
     201 -> 203        0.46653
     202 -> 203        0.44998
     202 -> 204        0.13621
 This state for optimization and/or second-order correction.
 Total Energy, E(TD-HF/TD-DFT) =  -3729.31647275    
 Copying the excited state density for this state as the 1-particle RhoCI density.
 
 Excited State   2:      Singlet-A      3.0063 eV  412.41 nm  f=0.2186  <S**2>=0.000
     198 -> 203        0.10735
     200 -> 203        0.29888
     201 -> 203       -0.37451
     202 -> 203        0.47289
     202 -> 204        0.14929
 
 Excited State   3:      Singlet-A      3.2787 eV  378.15 nm  f=0.8520  <S**2>=0.000
     201 -> 204        0.30951
     202 -> 203       -0.24862
     202 -> 204        0.50286
     202 -> 205       -0.11656
     202 -> 206       -0.17192
 
 Excited State   4:      Singlet-A      3.6284 eV  341.70 nm  f=0.0240  <S**2>=0.000
     192 -> 203        0.12113
     195 -> 203        0.10655
     198 -> 203        0.32171
     200 -> 203        0.44600
     201 -> 203        0.31707
     202 -> 204       -0.14532
     202 -> 206        0.12952
 
 Excited State   5:      Singlet-A      3.8619 eV  321.04 nm  f=0.4009  <S**2>=0.000
     198 -> 205       -0.11002
     200 -> 203       -0.12090
     200 -> 204       -0.19995
     200 -> 205       -0.16496
     201 -> 204        0.41096
     201 -> 205        0.22295
     202 -> 205        0.26806
     202 -> 206        0.26374
 
 Excited State   6:      Singlet-A      4.0038 eV  309.67 nm  f=0.0242  <S**2>=0.000
     190 -> 203       -0.14987
     191 -> 203        0.12988
     194 -> 203       -0.11888
     200 -> 205       -0.22522
     201 -> 204       -0.24775
     201 -> 205        0.40212
     202 -> 205        0.20593
     202 -> 206       -0.20745
     202 -> 208        0.10131
 
 Excited State   7:      Singlet-A      4.0732 eV  304.39 nm  f=0.0298  <S**2>=0.000
     201 -> 207       -0.23479
     202 -> 207        0.61899
 
 Excited State   8:      Singlet-A      4.2118 eV  294.37 nm  f=0.0258  <S**2>=0.000
     190 -> 203        0.18449
     191 -> 203       -0.36077
     193 -> 203       -0.13093
     194 -> 203        0.38805
     196 -> 203       -0.13902
     200 -> 203       -0.12109
     201 -> 204       -0.10717
     201 -> 205        0.14772
 
 Excited State   9:      Singlet-A      4.3124 eV  287.50 nm  f=0.1328  <S**2>=0.000
     189 -> 203       -0.13338
     190 -> 203        0.20318
     191 -> 203        0.18160
     192 -> 203        0.33572
     194 -> 203       -0.14973
     195 -> 203        0.15108
     198 -> 203        0.27439
     200 -> 203       -0.22762
     200 -> 204       -0.16594
     202 -> 206       -0.12207
     202 -> 208        0.10714
 
 Excited State  10:      Singlet-A      4.3443 eV  285.40 nm  f=0.0158  <S**2>=0.000
     190 -> 203        0.46048
     192 -> 203       -0.10145
     194 -> 203       -0.13092
     198 -> 203       -0.15259
     200 -> 203        0.10574
     201 -> 204       -0.14357
     201 -> 206        0.19878
     201 -> 208        0.12263
     202 -> 204        0.14547
     202 -> 206        0.21459
 SavETr:  write IOETrn=   770 NScale= 10 NData=  16 NLR=1 NState=   10 LETran=     190.

 **********************************************************************

            Population analysis using the SCF Density.

 **********************************************************************

 Orbital symmetries:
       Occupied  (A) (A) (A) (A) (A) (A) (A) (A) (A) (A) (A) (A)
                 (A) (A) (A) (A) (A) (A) (A) (A) (A) (A) (A) (A)
                 (A) (A) (A) (A) (A) (A) (A) (A) (A) (A) (A) (A)
                 (A) (A) (A) (A) (A) (A) (A) (A) (A) (A) (A) (A)
                 (A) (A) (A) (A) (A) (A) (A) (A) (A) (A) (A) (A)
                 (A) (A) (A) (A) (A) (A) (A) (A) (A) (A) (A) (A)
                 (A) (A) (A) (A) (A) (A) (A) (A) (A) (A) (A) (A)
                 (A) (A) (A) (A) (A) (A) (A) (A) (A) (A) (A) (A)
                 (A) (A) (A) (A) (A) (A) (A) (A) (A) (A) (A) (A)
                 (A) (A) (A) (A) (A) (A) (A) (A) (A) (A) (A) (A)
                 (A) (A) (A) (A) (A) (A) (A) (A) (A) (A) (A) (A)
                 (A) (A) (A) (A) (A) (A) (A) (A) (A) (A) (A) (A)
                 (A) (A) (A) (A) (A) (A) (A) (A) (A) (A) (A) (A)
                 (A) (A) (A) (A) (A) (A) (A) (A) (A) (A) (A) (A)
                 (A) (A) (A) (A) (A) (A) (A) (A) (A) (A) (A) (A)
                 (A) (A) (A) (A) (A) (A) (A) (A) (A) (A) (A) (A)
                 (A) (A) (A) (A) (A) (A) (A) (A) (A) (A)
       Virtual   (A) (A) (A) (A) (A) (A) (A) (A) (A) (A) (A) (A)
                 (A) (A) (A) (A) (A) (A) (A) (A) (A) (A) (A) (A)
                 (A) (A) (A) (A) (A) (A) (A) (A) (A) (A) (A) (A)
                 (A) (A) (A) (A) (A) (A) (A) (A) (A) (A) (A) (A)
                 (A) (A) (A) (A) (A) (A) (A) (A) (A) (A) (A) (A)
                 (A) (A) (A) (A) (A) (A) (A) (A) (A) (A) (A) (A)
                 (A) (A) (A) (A) (A) (A) (A) (A) (A) (A) (A) (A)
                 (A) (A) (A) (A) (A) (A) (A) (A) (A) (A) (A) (A)
                 (A) (A) (A) (A) (A) (A) (A) (A) (A) (A) (A) (A)
                 (A) (A) (A) (A) (A) (A) (A) (A) (A) (A) (A) (A)
                 (A) (A) (A) (A) (A) (A) (A) (A) (A) (A) (A) (A)
                 (A) (A) (A) (A) (A) (A) (A) (A) (A) (A) (A) (A)
                 (A) (A) (A) (A) (A) (A) (A) (A) (A) (A) (A) (A)
                 (A) (A) (A) (A) (A) (A) (A) (A) (A) (A) (A) (A)
                 (A) (A) (A) (A) (A) (A) (A) (A) (A) (A) (A) (A)
                 (A) (A) (A) (A) (A) (A) (A) (A) (A) (A) (A) (A)
                 (A) (A) (A) (A) (A) (A) (A) (A) (A) (A) (A) (A)
                 (A) (A) (A) (A) (A) (A) (A) (A) (A) (A) (A) (A)
                 (A) (A) (A) (A) (A) (A) (A) (A) (A) (A) (A) (A)
                 (A) (A) (A) (A) (A) (A) (A) (A) (A) (A) (A) (A)
                 (A) (A) (A) (A) (A) (A) (A) (A) (A) (A) (A) (A)
                 (A) (A) (A) (A) (A) (A) (A) (A) (A) (A) (A) (A)
                 (A) (A) (A) (A) (A) (A) (A) (A) (A) (A) (A) (A)
                 (A) (A) (A) (A) (A) (A) (A) (A) (A) (A) (A) (A)
                 (A) (A) (A) (A) (A) (A) (A) (A) (A) (A) (A) (A)
                 (A) (A) (A) (A) (A) (A) (A) (A) (A) (A) (A) (A)
                 (A) (A) (A) (A) (A) (A) (A) (A) (A) (A) (A) (A)
                 (A) (A) (A) (A) (A) (A) (A) (A) (A) (A) (A) (A)
                 (A) (A) (A) (A) (A) (A) (A) (A) (A) (A) (A) (A)
                 (A) (A) (A) (A) (A) (A) (A) (A) (A) (A) (A) (A)
                 (A) (A) (A) (A) (A) (A) (A) (A) (A) (A) (A) (A)
                 (A) (A) (A) (A) (A) (A) (A) (A) (A) (A) (A) (A)
                 (A) (A) (A) (A) (A) (A) (A) (A) (A) (A) (A) (A)
                 (A) (A) (A) (A) (A) (A) (A) (A) (A) (A) (A) (A)
                 (A) (A) (A) (A) (A) (A) (A) (A) (A) (A) (A) (A)
                 (A) (A) (A) (A) (A) (A) (A) (A) (A) (A) (A) (A)
                 (A) (A) (A) (A) (A) (A) (A) (A) (A) (A) (A) (A)
                 (A) (A) (A) (A) (A) (A) (A) (A) (A) (A) (A) (A)
                 (A) (A) (A) (A) (A) (A) (A) (A) (A) (A) (A) (A)
                 (A) (A) (A) (A) (A) (A) (A) (A) (A) (A) (A) (A)
                 (A) (A) (A) (A) (A) (A) (A) (A) (A) (A) (A) (A)
                 (A) (A) (A) (A) (A) (A) (A) (A) (A) (A) (A) (A)
                 (A) (A) (A) (A) (A) (A) (A) (A) (A) (A) (A) (A)
                 (A) (A) (A) (A) (A) (A) (A) (A) (A) (A) (A) (A)
                 (A) (A) (A) (A) (A) (A) (A) (A) (A) (A) (A) (A)
                 (A) (A) (A) (A) (A) (A) (A) (A) (A) (A) (A) (A)
                 (A) (A) (A) (A) (A) (A) (A) (A) (A) (A) (A) (A)
                 (A) (A) (A) (A) (A) (A) (A) (A) (A) (A) (A) (A)
                 (A) (A) (A) (A) (A) (A) (A) (A) (A) (A) (A) (A)
                 (A) (A) (A) (A) (A) (A) (A) (A) (A) (A) (A) (A)
                 (A) (A) (A) (A) (A) (A) (A) (A) (A) (A) (A) (A)
                 (A) (A) (A) (A) (A) (A) (A) (A) (A) (A) (A) (A)
                 (A) (A) (A) (A) (A) (A) (A) (A) (A) (A) (A) (A)
                 (A) (A) (A) (A) (A) (A) (A) (A) (A) (A) (A) (A)
                 (A) (A) (A) (A) (A) (A) (A) (A) (A) (A) (A) (A)
                 (A) (A) (A) (A) (A) (A) (A) (A) (A) (A) (A) (A)
                 (A) (A) (A) (A) (A) (A) (A) (A) (A) (A) (A) (A)
                 (A) (A) (A) (A) (A) (A) (A) (A) (A) (A) (A) (A)
                 (A) (A) (A) (A) (A) (A) (A) (A) (A) (A) (A) (A)
                 (A) (A) (A) (A) (A) (A) (A) (A) (A) (A) (A) (A)
                 (A) (A) (A) (A) (A) (A) (A) (A) (A) (A) (A) (A)
                 (A) (A) (A) (A) (A) (A) (A) (A) (A) (A) (A) (A)
                 (A) (A) (A) (A) (A) (A) (A) (A) (A) (A) (A) (A)
                 (A) (A) (A) (A) (A) (A) (A) (A) (A) (A) (A) (A)
                 (A) (A) (A) (A) (A) (A) (A) (A) (A) (A) (A) (A)
                 (A) (A) (A) (A) (A) (A) (A) (A) (A) (A) (A) (A)
                 (A) (A) (A) (A) (A) (A) (A) (A) (A) (A) (A) (A)
                 (A) (A) (A) (A) (A) (A) (A) (A) (A) (A) (A) (A)
                 (A) (A) (A) (A) (A) (A) (A) (A) (A) (A) (A) (A)
                 (A) (A) (A) (A) (A) (A) (A) (A) (A) (A) (A) (A)
                 (A) (A) (A) (A) (A) (A) (A) (A) (A) (A) (A) (A)
                 (A) (A) (A) (A) (A) (A) (A) (A) (A) (A) (A) (A)
                 (A) (A) (A) (A) (A) (A) (A) (A) (A) (A) (A) (A)
                 (A) (A) (A) (A) (A) (A) (A) (A) (A) (A) (A) (A)
                 (A) (A) (A) (A) (A) (A) (A) (A) (A) (A) (A) (A)
                 (A) (A) (A) (A) (A) (A) (A) (A) (A) (A) (A) (A)
                 (A) (A) (A) (A) (A) (A) (A) (A) (A) (A) (A) (A)
                 (A) (A) (A) (A) (A) (A) (A) (A) (A) (A) (A) (A)
                 (A) (A) (A) (A) (A) (A) (A) (A) (A) (A) (A) (A)
                 (A) (A) (A) (A) (A) (A) (A) (A) (A) (A) (A) (A)
                 (A) (A) (A) (A) (A) (A) (A) (A) (A) (A)
 The electronic state is 1-A.
 Alpha  occ. eigenvalues --  -89.02654 -88.96091 -88.95870 -88.94944 -19.24748
 Alpha  occ. eigenvalues --  -19.22459 -19.22342 -19.18929 -14.44177 -14.43904
 Alpha  occ. eigenvalues --  -14.41403 -14.38686 -10.39570 -10.32508 -10.32339
 Alpha  occ. eigenvalues --  -10.31222 -10.31131 -10.31006 -10.30929 -10.30517
 Alpha  occ. eigenvalues --  -10.30283 -10.30235 -10.30207 -10.30154 -10.30043
 Alpha  occ. eigenvalues --  -10.30007 -10.29578 -10.29241 -10.29146 -10.28874
 Alpha  occ. eigenvalues --  -10.28724 -10.28654 -10.28615 -10.28582 -10.27890
 Alpha  occ. eigenvalues --  -10.26631 -10.26582 -10.26382 -10.26177 -10.26132
 Alpha  occ. eigenvalues --  -10.25735 -10.25355 -10.25324 -10.25313 -10.25291
 Alpha  occ. eigenvalues --  -10.25287 -10.25237 -10.25213 -10.25174 -10.25127
 Alpha  occ. eigenvalues --  -10.24852 -10.24743 -10.24614 -10.24578  -8.11163
 Alpha  occ. eigenvalues --   -8.05014  -8.04780  -8.03861  -6.07678  -6.07077
 Alpha  occ. eigenvalues --   -6.06846  -6.01421  -6.01187  -6.01025  -6.00791
 Alpha  occ. eigenvalues --   -6.00648  -6.00417  -6.00264  -5.99870  -5.99505
 Alpha  occ. eigenvalues --   -1.20334  -1.15308  -1.15202  -1.12918  -1.11061
 Alpha  occ. eigenvalues --   -1.05227  -1.00383  -0.99930  -0.99599  -0.98733
 Alpha  occ. eigenvalues --   -0.97472  -0.96513  -0.94757  -0.94690  -0.92827
 Alpha  occ. eigenvalues --   -0.92622  -0.88839  -0.87193  -0.86778  -0.85422
 Alpha  occ. eigenvalues --   -0.85075  -0.84393  -0.84078  -0.83952  -0.83428
 Alpha  occ. eigenvalues --   -0.82912  -0.82566  -0.81790  -0.81228  -0.78981
 Alpha  occ. eigenvalues --   -0.78459  -0.77040  -0.75707  -0.73975  -0.73024
 Alpha  occ. eigenvalues --   -0.71604  -0.70981  -0.70891  -0.69955  -0.69455
 Alpha  occ. eigenvalues --   -0.69099  -0.67771  -0.67429  -0.66873  -0.65398
 Alpha  occ. eigenvalues --   -0.64335  -0.63139  -0.62084  -0.61970  -0.61830
 Alpha  occ. eigenvalues --   -0.61621  -0.60778  -0.60712  -0.60242  -0.59770
 Alpha  occ. eigenvalues --   -0.58831  -0.58462  -0.57222  -0.57052  -0.56713
 Alpha  occ. eigenvalues --   -0.56183  -0.55696  -0.55056  -0.54776  -0.54751
 Alpha  occ. eigenvalues --   -0.54642  -0.53975  -0.53222  -0.53007  -0.52444
 Alpha  occ. eigenvalues --   -0.52235  -0.51952  -0.50896  -0.50335  -0.50250
 Alpha  occ. eigenvalues --   -0.49850  -0.49761  -0.49696  -0.49482  -0.49316
 Alpha  occ. eigenvalues --   -0.48830  -0.48683  -0.48589  -0.48293  -0.47968
 Alpha  occ. eigenvalues --   -0.47805  -0.47074  -0.46644  -0.46485  -0.46382
 Alpha  occ. eigenvalues --   -0.46117  -0.45803  -0.45617  -0.45568  -0.45401
 Alpha  occ. eigenvalues --   -0.44479  -0.44411  -0.43944  -0.43682  -0.43634
 Alpha  occ. eigenvalues --   -0.43433  -0.43122  -0.42921  -0.42237  -0.41975
 Alpha  occ. eigenvalues --   -0.41265  -0.40606  -0.40436  -0.39956  -0.39884
 Alpha  occ. eigenvalues --   -0.39839  -0.39818  -0.39713  -0.39608  -0.38449
 Alpha  occ. eigenvalues --   -0.37632  -0.36804  -0.35952  -0.35272  -0.34003
 Alpha  occ. eigenvalues --   -0.32964  -0.32702  -0.32409  -0.32297  -0.31708
 Alpha  occ. eigenvalues --   -0.31610  -0.31279  -0.30087  -0.29038  -0.27628
 Alpha  occ. eigenvalues --   -0.24656  -0.22422
 Alpha virt. eigenvalues --   -0.09280  -0.03924  -0.03360  -0.00293   0.01541
 Alpha virt. eigenvalues --    0.02469   0.03051   0.03401   0.03674   0.03726
 Alpha virt. eigenvalues --    0.04020   0.04287   0.05167   0.06635   0.06712
 Alpha virt. eigenvalues --    0.06863   0.07137   0.07267   0.07928   0.08417
 Alpha virt. eigenvalues --    0.08428   0.08886   0.09017   0.09252   0.09553
 Alpha virt. eigenvalues --    0.09658   0.09933   0.10375   0.10733   0.11277
 Alpha virt. eigenvalues --    0.11512   0.11646   0.12107   0.12376   0.12774
 Alpha virt. eigenvalues --    0.13137   0.13351   0.13852   0.14241   0.14615
 Alpha virt. eigenvalues --    0.14993   0.15082   0.15149   0.15214   0.15536
 Alpha virt. eigenvalues --    0.15915   0.16157   0.16271   0.16762   0.17217
 Alpha virt. eigenvalues --    0.17702   0.18124   0.18206   0.18778   0.19026
 Alpha virt. eigenvalues --    0.19258   0.19397   0.19638   0.19887   0.20176
 Alpha virt. eigenvalues --    0.20355   0.21256   0.21549   0.22502   0.22655
 Alpha virt. eigenvalues --    0.22749   0.23150   0.23282   0.23537   0.23692
 Alpha virt. eigenvalues --    0.24735   0.25306   0.25877   0.26251   0.26487
 Alpha virt. eigenvalues --    0.26709   0.27306   0.28128   0.28610   0.28758
 Alpha virt. eigenvalues --    0.28874   0.29120   0.29299   0.29425   0.30224
 Alpha virt. eigenvalues --    0.30474   0.31277   0.31573   0.31863   0.33028
 Alpha virt. eigenvalues --    0.33618   0.33707   0.33893   0.34425   0.35002
 Alpha virt. eigenvalues --    0.35569   0.35708   0.35928   0.36305   0.36628
 Alpha virt. eigenvalues --    0.36737   0.36746   0.36893   0.37373   0.37632
 Alpha virt. eigenvalues --    0.37969   0.38301   0.38727   0.38975   0.39331
 Alpha virt. eigenvalues --    0.39648   0.39849   0.39991   0.40608   0.40839
 Alpha virt. eigenvalues --    0.41634   0.41971   0.42142   0.42214   0.42568
 Alpha virt. eigenvalues --    0.42750   0.43102   0.43251   0.43390   0.43802
 Alpha virt. eigenvalues --    0.43844   0.44097   0.44238   0.44614   0.44884
 Alpha virt. eigenvalues --    0.45043   0.45113   0.45217   0.45654   0.45774
 Alpha virt. eigenvalues --    0.45860   0.46066   0.46196   0.46339   0.46492
 Alpha virt. eigenvalues --    0.46831   0.46972   0.47170   0.47274   0.47320
 Alpha virt. eigenvalues --    0.47400   0.47553   0.47849   0.48397   0.48549
 Alpha virt. eigenvalues --    0.48909   0.48947   0.49340   0.49560   0.49770
 Alpha virt. eigenvalues --    0.49835   0.50185   0.50361   0.50466   0.50599
 Alpha virt. eigenvalues --    0.50958   0.51315   0.51867   0.52063   0.52457
 Alpha virt. eigenvalues --    0.52585   0.53131   0.53447   0.53657   0.53869
 Alpha virt. eigenvalues --    0.54128   0.54637   0.54948   0.55211   0.55715
 Alpha virt. eigenvalues --    0.55796   0.55844   0.56585   0.56730   0.56900
 Alpha virt. eigenvalues --    0.56948   0.56995   0.57181   0.57725   0.57849
 Alpha virt. eigenvalues --    0.58029   0.58430   0.58610   0.58991   0.59560
 Alpha virt. eigenvalues --    0.59942   0.60237   0.60432   0.60557   0.61009
 Alpha virt. eigenvalues --    0.61222   0.61320   0.61477   0.62288   0.62634
 Alpha virt. eigenvalues --    0.63117   0.63353   0.63480   0.63598   0.63895
 Alpha virt. eigenvalues --    0.64345   0.64391   0.64610   0.64811   0.65042
 Alpha virt. eigenvalues --    0.65214   0.65311   0.65597   0.65949   0.66448
 Alpha virt. eigenvalues --    0.66652   0.66806   0.66984   0.67189   0.67495
 Alpha virt. eigenvalues --    0.67516   0.67630   0.68114   0.68455   0.68702
 Alpha virt. eigenvalues --    0.68962   0.69339   0.69503   0.69878   0.70087
 Alpha virt. eigenvalues --    0.70197   0.70576   0.70831   0.71008   0.71562
 Alpha virt. eigenvalues --    0.71703   0.71954   0.72457   0.72543   0.72549
 Alpha virt. eigenvalues --    0.72807   0.73082   0.73346   0.73773   0.74037
 Alpha virt. eigenvalues --    0.74397   0.74729   0.75123   0.75467   0.76213
 Alpha virt. eigenvalues --    0.76324   0.76878   0.76958   0.77161   0.77411
 Alpha virt. eigenvalues --    0.78171   0.78706   0.78933   0.79603   0.79993
 Alpha virt. eigenvalues --    0.80103   0.80541   0.81113   0.81496   0.81720
 Alpha virt. eigenvalues --    0.82617   0.83017   0.83276   0.84043   0.84350
 Alpha virt. eigenvalues --    0.84499   0.84602   0.84867   0.85052   0.85168
 Alpha virt. eigenvalues --    0.85319   0.85465   0.85900   0.86124   0.86778
 Alpha virt. eigenvalues --    0.86961   0.87010   0.87283   0.87738   0.87885
 Alpha virt. eigenvalues --    0.87952   0.88350   0.88744   0.89067   0.89289
 Alpha virt. eigenvalues --    0.89397   0.89667   0.90073   0.90297   0.90720
 Alpha virt. eigenvalues --    0.90832   0.91281   0.91832   0.92045   0.92772
 Alpha virt. eigenvalues --    0.92973   0.93277   0.93449   0.93882   0.94059
 Alpha virt. eigenvalues --    0.94195   0.94668   0.95136   0.95468   0.95749
 Alpha virt. eigenvalues --    0.96020   0.96501   0.96884   0.97358   0.97515
 Alpha virt. eigenvalues --    0.97610   0.98213   0.98428   0.98532   0.98686
 Alpha virt. eigenvalues --    0.99317   1.00326   1.00544   1.01211   1.01430
 Alpha virt. eigenvalues --    1.01590   1.01797   1.02079   1.02397   1.02537
 Alpha virt. eigenvalues --    1.02860   1.03630   1.03922   1.04226   1.04558
 Alpha virt. eigenvalues --    1.04966   1.05271   1.05480   1.05985   1.06777
 Alpha virt. eigenvalues --    1.07245   1.07738   1.08558   1.08721   1.08874
 Alpha virt. eigenvalues --    1.09363   1.09811   1.09956   1.10129   1.10350
 Alpha virt. eigenvalues --    1.10549   1.11002   1.11318   1.11620   1.12075
 Alpha virt. eigenvalues --    1.12943   1.13343   1.13490   1.14004   1.14457
 Alpha virt. eigenvalues --    1.14560   1.14901   1.15070   1.15990   1.16317
 Alpha virt. eigenvalues --    1.16805   1.17100   1.17490   1.18113   1.18581
 Alpha virt. eigenvalues --    1.18728   1.18874   1.19271   1.19624   1.19791
 Alpha virt. eigenvalues --    1.20523   1.20921   1.21517   1.22436   1.22646
 Alpha virt. eigenvalues --    1.23180   1.23663   1.24911   1.26138   1.26286
 Alpha virt. eigenvalues --    1.27223   1.28511   1.28864   1.29432   1.29939
 Alpha virt. eigenvalues --    1.30352   1.31161   1.31506   1.31609   1.32003
 Alpha virt. eigenvalues --    1.32491   1.33281   1.33456   1.34489   1.34563
 Alpha virt. eigenvalues --    1.35378   1.35819   1.36587   1.37704   1.39160
 Alpha virt. eigenvalues --    1.39299   1.39876   1.40924   1.41566   1.41753
 Alpha virt. eigenvalues --    1.42462   1.42596   1.42763   1.43874   1.44901
 Alpha virt. eigenvalues --    1.45557   1.46235   1.46615   1.47031   1.47318
 Alpha virt. eigenvalues --    1.48530   1.49241   1.49782   1.49881   1.50015
 Alpha virt. eigenvalues --    1.50548   1.50605   1.50902   1.52130   1.52185
 Alpha virt. eigenvalues --    1.52509   1.52613   1.53167   1.53382   1.53634
 Alpha virt. eigenvalues --    1.53667   1.53964   1.54313   1.54745   1.55118
 Alpha virt. eigenvalues --    1.55333   1.55564   1.56008   1.57079   1.57584
 Alpha virt. eigenvalues --    1.57940   1.58390   1.58997   1.59582   1.59677
 Alpha virt. eigenvalues --    1.59813   1.60816   1.60920   1.61111   1.61299
 Alpha virt. eigenvalues --    1.61500   1.61655   1.62451   1.62794   1.62904
 Alpha virt. eigenvalues --    1.63341   1.63510   1.63646   1.64058   1.64470
 Alpha virt. eigenvalues --    1.64873   1.65032   1.65262   1.65434   1.65747
 Alpha virt. eigenvalues --    1.65978   1.66124   1.66624   1.66796   1.67316
 Alpha virt. eigenvalues --    1.67364   1.67607   1.68257   1.68370   1.68626
 Alpha virt. eigenvalues --    1.69160   1.70455   1.71195   1.71627   1.72324
 Alpha virt. eigenvalues --    1.72835   1.73241   1.73293   1.73421   1.73572
 Alpha virt. eigenvalues --    1.73822   1.74209   1.74527   1.75218   1.75570
 Alpha virt. eigenvalues --    1.75848   1.76061   1.76387   1.76814   1.77132
 Alpha virt. eigenvalues --    1.78086   1.78129   1.79156   1.79620   1.79890
 Alpha virt. eigenvalues --    1.79933   1.80273   1.80572   1.80727   1.81015
 Alpha virt. eigenvalues --    1.81320   1.81899   1.82517   1.82768   1.83409
 Alpha virt. eigenvalues --    1.84013   1.84098   1.84310   1.84480   1.84893
 Alpha virt. eigenvalues --    1.85504   1.85685   1.86686   1.87068   1.87613
 Alpha virt. eigenvalues --    1.88387   1.88972   1.89730   1.90261   1.90538
 Alpha virt. eigenvalues --    1.91476   1.91562   1.92064   1.92185   1.92308
 Alpha virt. eigenvalues --    1.92504   1.92950   1.93233   1.94125   1.94603
 Alpha virt. eigenvalues --    1.94805   1.95159   1.96010   1.96786   1.97068
 Alpha virt. eigenvalues --    1.97210   1.97716   1.97822   1.98323   1.98466
 Alpha virt. eigenvalues --    1.98849   1.99058   1.99843   2.00224   2.00380
 Alpha virt. eigenvalues --    2.00791   2.01051   2.01199   2.01929   2.02076
 Alpha virt. eigenvalues --    2.02693   2.02854   2.03040   2.03399   2.04082
 Alpha virt. eigenvalues --    2.04766   2.05149   2.05550   2.06174   2.06719
 Alpha virt. eigenvalues --    2.07009   2.07358   2.07530   2.08105   2.08255
 Alpha virt. eigenvalues --    2.08775   2.08952   2.09118   2.09534   2.09961
 Alpha virt. eigenvalues --    2.11011   2.11705   2.11918   2.12053   2.13323
 Alpha virt. eigenvalues --    2.13777   2.13992   2.14058   2.14937   2.15236
 Alpha virt. eigenvalues --    2.15541   2.15739   2.16250   2.16600   2.17007
 Alpha virt. eigenvalues --    2.17312   2.17890   2.18264   2.18606   2.18737
 Alpha virt. eigenvalues --    2.19680   2.19798   2.20082   2.21846   2.22263
 Alpha virt. eigenvalues --    2.24635   2.24969   2.25515   2.25925   2.26558
 Alpha virt. eigenvalues --    2.27090   2.27767   2.28509   2.28889   2.29679
 Alpha virt. eigenvalues --    2.30157   2.31595   2.32719   2.34211   2.34673
 Alpha virt. eigenvalues --    2.35003   2.35280   2.35762   2.36553   2.37240
 Alpha virt. eigenvalues --    2.38456   2.38573   2.38815   2.39434   2.39553
 Alpha virt. eigenvalues --    2.40532   2.40681   2.40957   2.41250   2.41770
 Alpha virt. eigenvalues --    2.42545   2.42582   2.43063   2.44356   2.45592
 Alpha virt. eigenvalues --    2.46117   2.46367   2.46780   2.47128   2.47371
 Alpha virt. eigenvalues --    2.47763   2.48574   2.49327   2.51221   2.51336
 Alpha virt. eigenvalues --    2.51413   2.52190   2.53173   2.53822   2.55188
 Alpha virt. eigenvalues --    2.55805   2.56031   2.56550   2.56757   2.58465
 Alpha virt. eigenvalues --    2.58562   2.59417   2.59933   2.60788   2.61053
 Alpha virt. eigenvalues --    2.61903   2.62147   2.62654   2.62883   2.64693
 Alpha virt. eigenvalues --    2.64834   2.65463   2.65541   2.65628   2.66652
 Alpha virt. eigenvalues --    2.67033   2.67216   2.67294   2.67489   2.67930
 Alpha virt. eigenvalues --    2.68564   2.68855   2.69376   2.69472   2.69582
 Alpha virt. eigenvalues --    2.69863   2.70257   2.70548   2.70654   2.71110
 Alpha virt. eigenvalues --    2.71795   2.72163   2.72694   2.72788   2.73379
 Alpha virt. eigenvalues --    2.73520   2.73663   2.74452   2.74506   2.74696
 Alpha virt. eigenvalues --    2.74947   2.75252   2.75651   2.76174   2.76639
 Alpha virt. eigenvalues --    2.76713   2.77036   2.77511   2.77608   2.77728
 Alpha virt. eigenvalues --    2.78329   2.78506   2.78829   2.79120   2.80093
 Alpha virt. eigenvalues --    2.80693   2.81183   2.82241   2.82616   2.83109
 Alpha virt. eigenvalues --    2.83515   2.83977   2.84668   2.85253   2.86156
 Alpha virt. eigenvalues --    2.86210   2.87810   2.88117   2.89023   2.89710
 Alpha virt. eigenvalues --    2.89900   2.90572   2.91034   2.91408   2.91855
 Alpha virt. eigenvalues --    2.93407   2.93797   2.93878   2.93927   2.94432
 Alpha virt. eigenvalues --    2.94672   2.94973   2.96240   2.96477   2.97478
 Alpha virt. eigenvalues --    2.98596   2.99023   2.99916   3.00294   3.00526
 Alpha virt. eigenvalues --    3.01008   3.01416   3.01829   3.01901   3.03201
 Alpha virt. eigenvalues --    3.03736   3.05236   3.05347   3.06063   3.08228
 Alpha virt. eigenvalues --    3.08512   3.09091   3.09331   3.09656   3.09721
 Alpha virt. eigenvalues --    3.11526   3.11650   3.12215   3.12697   3.14001
 Alpha virt. eigenvalues --    3.14108   3.14480   3.14644   3.16713   3.16882
 Alpha virt. eigenvalues --    3.18400   3.18786   3.19337   3.19958   3.21735
 Alpha virt. eigenvalues --    3.22528   3.23237   3.23394   3.24151   3.24383
 Alpha virt. eigenvalues --    3.25978   3.26310   3.27291   3.27922   3.29661
 Alpha virt. eigenvalues --    3.31310   3.31382   3.31599   3.32412   3.34174
 Alpha virt. eigenvalues --    3.34412   3.36712   3.38397   3.39209   3.39296
 Alpha virt. eigenvalues --    3.39862   3.40911   3.41575   3.42298   3.42540
 Alpha virt. eigenvalues --    3.43227   3.43926   3.44295   3.44833   3.46839
 Alpha virt. eigenvalues --    3.47141   3.48535   3.49677   3.50666   3.51825
 Alpha virt. eigenvalues --    3.52701   3.54658   3.55747   3.56349   3.56953
 Alpha virt. eigenvalues --    3.57868   3.59242   3.61499   3.62028   3.63005
 Alpha virt. eigenvalues --    3.63636   3.65583   3.66293   3.67328   3.68534
 Alpha virt. eigenvalues --    3.68950   3.69179   3.72249   3.75841   3.80138
 Alpha virt. eigenvalues --    3.80665   3.81720   3.82000   3.82144   3.83077
 Alpha virt. eigenvalues --    3.85135   3.85453   3.86180   3.89008   3.90901
 Alpha virt. eigenvalues --    3.93823   3.94792   3.95176   3.96632   3.99272
 Alpha virt. eigenvalues --    4.01515   4.03698   4.04640   4.05842   4.06199
 Alpha virt. eigenvalues --    4.11066   4.11273   4.13193   4.13428   4.16162
 Alpha virt. eigenvalues --    4.16723   4.17423   4.18251   4.18347   4.19230
 Alpha virt. eigenvalues --    4.20466   4.20800   4.21284   4.22402   4.23857
 Alpha virt. eigenvalues --    4.24086   4.24306   4.25630   4.26869   4.41983
 Alpha virt. eigenvalues --    4.48011   4.56721   4.59864   4.68557   4.70910
 Alpha virt. eigenvalues --    4.79478   4.84786   4.85261   4.88583   4.91312
 Alpha virt. eigenvalues --    4.91690   4.91795   4.96706   4.96836   4.96987
 Alpha virt. eigenvalues --    5.09612   5.12358   5.20782   5.35172   5.35313
 Alpha virt. eigenvalues --    5.37072   5.65891   5.83898   5.84033   5.84453
 Alpha virt. eigenvalues --    7.83435   7.85711   7.88206   7.89028  17.18543
 Alpha virt. eigenvalues --   17.25803  17.27175  17.28815  17.35006  17.38028
 Alpha virt. eigenvalues --   17.51257  17.51781  17.54135  17.56110  17.58418
 Alpha virt. eigenvalues --   17.58830  23.47358  23.53185  23.56038  23.58335
 Alpha virt. eigenvalues --   23.62090  23.68199  23.72857  23.78996  23.83026
 Alpha virt. eigenvalues --   23.84210  23.88657  23.90825  23.91844  23.91975
 Alpha virt. eigenvalues --   23.92589  23.94992  23.95685  23.96244  23.98016
 Alpha virt. eigenvalues --   23.98199  23.99446  23.99577  23.99790  24.07103
 Alpha virt. eigenvalues --   24.08402  24.08988  24.10045  24.10555  24.10817
 Alpha virt. eigenvalues --   24.12822  24.17022  24.17199  24.17632  24.17976
 Alpha virt. eigenvalues --   24.18745  24.18933  24.19839  24.21155  24.23843
 Alpha virt. eigenvalues --   24.24117  24.24521  24.49098  35.52034  35.64919
 Alpha virt. eigenvalues --   35.70775  35.88796  49.89108  49.96494  49.96619
 Alpha virt. eigenvalues --   50.04617 188.88213 188.89052 188.93330 188.93833
          Condensed to atoms (all electrons):
 Mulliken charges:
               1
     1  C   -0.148428
     2  O   -0.342704
     3  C    0.158226
     4  C   -0.140994
     5  C   -0.064267
     6  C    0.040367
     7  N   -0.489960
     8  C    0.175006
     9  C   -0.120160
    10  C   -0.048828
    11  C   -0.009665
    12  C   -0.101338
    13  C   -0.119468
    14  H    0.126819
    15  H    0.112463
    16  C   -0.276790
    17  S    0.317013
    18  C   -0.253451
    19  C   -0.014575
    20  C   -0.056618
    21  H    0.107597
    22  H    0.106937
    23  C   -0.239883
    24  S    0.330191
    25  C   -0.258169
    26  C   -0.017147
    27  C   -0.028993
    28  H    0.110636
    29  H    0.111042
    30  C   -0.235758
    31  C   -0.021384
    32  C   -0.011567
    33  C   -0.305221
    34  S    0.339070
    35  C    0.109166
    36  C   -0.121147
    37  C   -0.033492
    38  C   -0.094990
    39  C    0.110014
    40  C    0.131538
    41  N   -0.484622
    42  S    0.571490
    43  N   -0.461362
    44  C    0.103528
    45  C   -0.213670
    46  C    0.045510
    47  N   -0.198093
    48  C    0.420945
    49  O   -0.334288
    50  H    0.265587
    51  O   -0.303350
    52  H    0.158244
    53  H    0.144734
    54  H    0.120353
    55  H    0.139633
    56  H    0.110613
    57  H    0.102301
    58  H    0.125717
    59  C    0.041253
    60  C   -0.064058
    61  C   -0.141027
    62  C    0.157924
    63  C   -0.093007
    64  C   -0.061328
    65  H    0.118445
    66  H    0.115086
    67  O   -0.343505
    68  C   -0.148351
    69  H    0.115158
    70  H    0.114572
    71  H    0.135317
    72  H    0.116079
    73  H    0.115099
    74  C   -0.060744
    75  C   -0.092348
    76  H    0.116417
    77  H    0.118870
    78  H    0.114365
    79  H    0.115957
    80  H    0.135960
    81  H    0.115542
    82  H    0.113966
 Sum of Mulliken charges =  -0.00000
 Mulliken charges with hydrogens summed into heavy atoms:
               1
     1  C    0.217039
     2  O   -0.342704
     3  C    0.158226
     4  C   -0.025037
     5  C    0.050098
     6  C    0.040367
     7  N   -0.489960
     8  C    0.175006
     9  C    0.005557
    10  C    0.053474
    11  C   -0.009665
    12  C    0.011125
    13  C    0.007351
    16  C   -0.276790
    17  S    0.317013
    18  C   -0.253451
    19  C    0.092363
    20  C    0.050979
    23  C   -0.239883
    24  S    0.330191
    25  C   -0.258169
    26  C    0.093896
    27  C    0.081643
    30  C   -0.235758
    31  C    0.089229
    32  C    0.128066
    33  C   -0.305221
    34  S    0.339070
    35  C    0.109166
    36  C   -0.000794
    37  C    0.111243
    38  C   -0.094990
    39  C    0.110014
    40  C    0.131538
    41  N   -0.484622
    42  S    0.571490
    43  N   -0.461362
    44  C    0.261772
    45  C   -0.213670
    46  C    0.045510
    47  N   -0.198093
    48  C    0.420945
    49  O   -0.068701
    51  O   -0.303350
    59  C    0.041253
    60  C    0.051041
    61  C   -0.024948
    62  C    0.157924
    63  C    0.022080
    64  C    0.057116
    67  O   -0.343505
    68  C    0.216696
    74  C    0.058127
    75  C    0.024069
 Electronic spatial extent (au):  <R**2>=         109333.2105
 Charge=              0.0000 electrons
 Dipole moment (field-independent basis, Debye):
    X=             -5.3727    Y=             -5.3755    Z=             -0.2024  Tot=              7.6028
 Quadrupole moment (field-independent basis, Debye-Ang):
   XX=           -240.4811   YY=           -338.4481   ZZ=           -339.8680
   XY=            -66.2083   XZ=             -7.0849   YZ=             -7.3758
 Traceless Quadrupole moment (field-independent basis, Debye-Ang):
   XX=             65.7847   YY=            -32.1824   ZZ=            -33.6023
   XY=            -66.2083   XZ=             -7.0849   YZ=             -7.3758
 Octapole moment (field-independent basis, Debye-Ang**2):
  XXX=           -461.5141  YYY=           -249.5809  ZZZ=              7.0395  XYY=           -409.1403
  XXY=            -76.8735  XXZ=            155.2044  XZZ=            -55.3583  YZZ=             54.6591
  YYZ=            -75.9751  XYZ=             76.1923
 Hexadecapole moment (field-independent basis, Debye-Ang**3):
 XXXX=        -103029.5939 YYYY=         -19519.2238 ZZZZ=           -965.6507 XXXY=          -3151.9160
 XXXZ=          -2275.6258 YYYX=          -3764.2197 YYYZ=           -394.5531 ZZZX=             11.5685
 ZZZY=            -24.5969 XXYY=         -25184.4779 XXZZ=         -21202.2050 YYZZ=          -3429.5111
 XXYZ=           -718.5369 YYXZ=            400.9230 ZZXY=             27.7904
 N-N= 6.545177224252D+03 E-N=-2.185334329795D+04  KE= 3.720181548140D+03
 1\1\GINC-CN113\SP\RCAM-B3LYP TD-FC\6-311G(d,p)\C42H28N4O4S4\R2532\04-J
 un-2021\0\\#N TD(NStates=10) CAM-B3lYP/6-311G(d,p)\\Name\\0,1\C,0,-8.1
 82487,7.128568,-1.105953\O,0,-7.424227,6.34312,-0.197444\C,0,-7.594299
 ,4.990534,-0.210206\C,0,-8.469618,4.30292,-1.054202\C,0,-8.556066,2.91
 2758,-0.98279\C,0,-7.794556,2.189376,-0.065242\N,0,-7.914267,0.769334,
 0.020459\C,0,-6.774216,-0.050771,0.00591\C,0,-6.768593,-1.297194,0.659
 475\C,0,-5.644102,-2.104499,0.641031\C,0,-4.467692,-1.716233,-0.024144
 \C,0,-4.478614,-0.467096,-0.667243\C,0,-5.599876,0.346473,-0.658344\H,
 0,-5.576908,1.293575,-1.181667\H,0,-3.602711,-0.138034,-1.21567\C,0,-3
 .298009,-2.590422,-0.040351\S,0,-1.679247,-1.948306,-0.237981\C,0,-0.9
 56467,-3.542922,-0.138653\C,0,-1.93757,-4.494386,0.044753\C,0,-3.24433
 7,-3.961437,0.093471\H,0,-4.130751,-4.57135,0.204916\H,0,-1.716499,-5.
 548,0.153267\C,0,0.46609,-3.755461,-0.253515\S,0,1.625967,-2.48934,0.0
 9096\C,0,2.982405,-3.542881,-0.26359\C,0,2.52668,-4.8025,-0.6028\C,0,1
 .123658,-4.920823,-0.59969\H,0,0.598595,-5.824193,-0.878894\H,0,3.1920
 24,-5.607489,-0.884805\C,0,4.348203,-3.095277,-0.180959\C,0,5.489847,-
 3.87575,-0.107659\C,0,6.681322,-3.134897,-0.049206\C,0,6.495056,-1.761
 727,-0.065502\S,0,4.773393,-1.400692,-0.18014\C,0,7.47084,-0.700054,-0
 .004172\C,0,7.110588,0.645469,0.018098\C,0,8.027128,1.709041,0.075048\
 C,0,9.404895,1.522915,0.11638\C,0,9.839338,0.149149,0.096587\C,0,8.893
 835,-0.951326,0.03749\N,0,9.486622,-2.145534,0.026726\S,0,11.103043,-1
 .887273,0.087207\N,0,11.109838,-0.25003,0.128721\C,0,10.416144,2.54740
 4,0.177016\C,0,10.318038,3.907627,0.206239\C,0,9.086736,4.624554,0.179
 205\N,0,8.074009,5.181561,0.156275\C,0,11.527344,4.770239,0.270304\O,0
 ,12.682594,4.060852,0.295141\H,0,13.395218,4.714294,0.336154\O,0,11.50
 2773,5.975544,0.297992\H,0,11.429221,2.163911,0.203953\H,0,7.621846,2.
 710797,0.088106\H,0,6.059098,0.905844,-0.006957\H,0,7.6642,-3.57476,0.
 016447\H,0,5.457693,-4.956156,-0.073146\H,0,-5.665615,-3.041239,1.1858
 74\H,0,-7.649607,-1.620623,1.198724\C,0,-9.220243,0.201134,0.115168\C,
 0,-10.139608,0.682707,1.047013\C,0,-11.428031,0.154911,1.127792\C,0,-1
 1.808286,-0.887709,0.279495\C,0,-10.887142,-1.380914,-0.653708\C,0,-9.
 616649,-0.837159,-0.741459\H,0,-8.917672,-1.217857,-1.476612\H,0,-11.1
 99291,-2.182431,-1.312207\O,0,-13.035193,-1.482953,0.276218\C,0,-14.01
 3089,-1.020418,1.196578\H,0,-13.687246,-1.158105,2.2338\H,0,-14.254822
 ,0.035405,1.029631\H,0,-14.900545,-1.624742,1.016261\H,0,-12.114575,0.
 557814,1.860159\H,0,-9.849997,1.486332,1.713561\C,0,-6.927688,2.890499
 ,0.786592\C,0,-6.820574,4.268759,0.708116\H,0,-6.152769,4.81606,1.3622
 63\H,0,-6.334436,2.344841,1.510642\H,0,-9.232054,2.385586,-1.645441\H,
 0,-9.078993,4.830121,-1.775834\H,0,-7.894368,8.161501,-0.918177\H,0,-7
 .953658,6.873436,-2.14684\H,0,-9.258874,7.01634,-0.932988\\Version=ES6
 4L-G16RevB.01\State=1-A\HF=-3729.4009908\RMSD=6.384e-09\PG=C01 [X(C42H
 28N4O4S4)]\\@


  THE LARGE PRINT GIVETH,
  AND THE SMALL PRINT TAKETH AWAY.

                     -- TOM WAITS
 Job cpu time:       0 days  5 hours 10 minutes 47.2 seconds.
 Elapsed time:       0 days  5 hours 10 minutes 49.3 seconds.
 File lengths (MBytes):  RWF=   8283 Int=      0 D2E=      0 Chk=    514 Scr=      1
 Normal termination of Gaussian 16 at Fri Jun  4 14:10:43 2021.
