 Entering Gaussian System, Link 0=/usr/local/apps//g09/g09
 Input=mexc.com
 Output=mexc.out
 Initial command:
 /usr/local/apps//g09/l1.exe "/tmp/bnp.501999.sequoia/Gau-2832.inp" -scrdir="/tmp/bnp.501999.sequoia/"
 Entering Link 1 = /usr/local/apps//g09/l1.exe PID=      2833.
  
 Copyright (c) 1988,1990,1992,1993,1995,1998,2003,2009,2013,
            Gaussian, Inc.  All Rights Reserved.
  
 This is part of the Gaussian(R) 09 program.  It is based on
 the Gaussian(R) 03 system (copyright 2003, Gaussian, Inc.),
 the Gaussian(R) 98 system (copyright 1998, Gaussian, Inc.),
 the Gaussian(R) 94 system (copyright 1995, Gaussian, Inc.),
 the Gaussian 92(TM) system (copyright 1992, Gaussian, Inc.),
 the Gaussian 90(TM) system (copyright 1990, Gaussian, Inc.),
 the Gaussian 88(TM) system (copyright 1988, Gaussian, Inc.),
 the Gaussian 86(TM) system (copyright 1986, Carnegie Mellon
 University), and the Gaussian 82(TM) system (copyright 1983,
 Carnegie Mellon University). Gaussian is a federally registered
 trademark of Gaussian, Inc.
  
 This software contains proprietary and confidential information,
 including trade secrets, belonging to Gaussian, Inc.
  
 This software is provided under written license and may be
 used, copied, transmitted, or stored only in accord with that
 written license.
  
 The following legend is applicable only to US Government
 contracts under FAR:
  
                    RESTRICTED RIGHTS LEGEND
  
 Use, reproduction and disclosure by the US Government is
 subject to restrictions as set forth in subparagraphs (a)
 and (c) of the Commercial Computer Software - Restricted
 Rights clause in FAR 52.227-19.
  
 Gaussian, Inc.
 340 Quinnipiac St., Bldg. 40, Wallingford CT 06492
  
  
 ---------------------------------------------------------------
 Warning -- This program may not be used in any manner that
 competes with the business of Gaussian, Inc. or will provide
 assistance to any competitor of Gaussian, Inc.  The licensee
 of this program is prohibited from giving any competitor of
 Gaussian, Inc. access to this program.  By using this program,
 the user acknowledges that Gaussian, Inc. is engaged in the
 business of creating and licensing software in the field of
 computational chemistry and represents and warrants to the
 licensee that it is not a competitor of Gaussian, Inc. and that
 it will not use this program in any manner prohibited above.
 ---------------------------------------------------------------
  

 Cite this work as:
 Gaussian 09, Revision D.01,
 M. J. Frisch, G. W. Trucks, H. B. Schlegel, G. E. Scuseria, 
 M. A. Robb, J. R. Cheeseman, G. Scalmani, V. Barone, B. Mennucci, 
 G. A. Petersson, H. Nakatsuji, M. Caricato, X. Li, H. P. Hratchian, 
 A. F. Izmaylov, J. Bloino, G. Zheng, J. L. Sonnenberg, M. Hada, 
 M. Ehara, K. Toyota, R. Fukuda, J. Hasegawa, M. Ishida, T. Nakajima, 
 Y. Honda, O. Kitao, H. Nakai, T. Vreven, J. A. Montgomery, Jr., 
 J. E. Peralta, F. Ogliaro, M. Bearpark, J. J. Heyd, E. Brothers, 
 K. N. Kudin, V. N. Staroverov, T. Keith, R. Kobayashi, J. Normand, 
 K. Raghavachari, A. Rendell, J. C. Burant, S. S. Iyengar, J. Tomasi, 
 M. Cossi, N. Rega, J. M. Millam, M. Klene, J. E. Knox, J. B. Cross, 
 V. Bakken, C. Adamo, J. Jaramillo, R. Gomperts, R. E. Stratmann, 
 O. Yazyev, A. J. Austin, R. Cammi, C. Pomelli, J. W. Ochterski, 
 R. L. Martin, K. Morokuma, V. G. Zakrzewski, G. A. Voth, 
 P. Salvador, J. J. Dannenberg, S. Dapprich, A. D. Daniels, 
 O. Farkas, J. B. Foresman, J. V. Ortiz, J. Cioslowski, 
 and D. J. Fox, Gaussian, Inc., Wallingford CT, 2013.
 
 ******************************************
 Gaussian 09:  ES64L-G09RevD.01 24-Apr-2013
                11-Sep-2021 
 ******************************************
 %mem=8gb
 ---------------------------------------
 #N bhandhlyp/6-311G(d,p) TD(NStates=10)
 ---------------------------------------
 1/38=1/1;
 2/12=2,17=6,18=5,40=1/2;
 3/5=4,6=6,7=101,11=9,16=1,25=1,30=1,74=-3/1,2,8,3;
 4//1;
 5/5=2,38=5/2;
 8/6=1,10=2,108=10/1;
 9/41=10,42=1,70=2/14;
 6/7=2,8=2,9=2,10=2/1;
 99/5=1,9=1/99;
 ----
 Name
 ----
 Symbolic Z-matrix:
 Charge =  0 Multiplicity = 1
 N1                   -4.33447   0.09177  -0.0121 
 C2                   -4.94197  -1.17053   0.00485 
 C3                   -6.32875  -1.21331  -0.21848 
 C4                   -7.00263  -2.4245   -0.21284 
 C5                   -6.31219  -3.61627   0.0132 
 C6                   -4.94063  -3.57427   0.24028 
 C7                   -4.24942  -2.3649    0.24074 
 C8                   -0.47443   0.86058  -0.01803 
 C9                   -1.21852   2.05223   0.00372 
 C10                  -2.65149   1.84521   0.02401 
 N11                  -3.38276   2.96005   0.04289 
 S12                  -2.29831   4.19019   0.04147 
 N13                  -0.886     3.35358   0.01408 
 C14                  -3.03635   0.48572   0.01317 
 S15                  -1.60935  -0.49523  -0.02779 
 O16                   8.05452  -1.57708  -0.01002 
 C17                   6.73819  -1.89147  -0.01713 
 C18                   5.77746  -0.74397  -0.01034 
 C19                   6.30121   0.57136   0.00347 
 N20                   6.7885    1.62405   0.0148 
 C21                   4.4364   -1.03488  -0.01782 
 C22                   3.31771  -0.17076  -0.01434 
 C23                   3.2085    1.21881  -0.00134 
 C24                   1.89824   1.69391  -0.00186 
 C25                   0.9328    0.68008  -0.01457 
 S26                   1.69896  -0.88714  -0.02769 
 O27                   6.38701  -3.04296  -0.02836 
 H28                  -4.97309   0.87595  -0.06911 
 H29                  -6.87043  -0.29063  -0.40082 
 H30                  -8.07192  -2.43854  -0.38834 
 H31                  -6.83889  -4.56257   0.01387 
 H32                  -4.39219  -4.49041   0.42533 
 H33                  -3.18918  -2.36935   0.44643 
 H34                   8.18503  -0.61862  -0.00128 
 H35                   4.23738  -2.10365  -0.02813 
 H36                   4.07209   1.86894   0.00847 
 H37                   1.6266    2.73964   0.0067 
 
                          Input orientation:                          
 ---------------------------------------------------------------------
 Center     Atomic      Atomic             Coordinates (Angstroms)
 Number     Number       Type             X           Y           Z
 ---------------------------------------------------------------------
      1          7           0       -4.334466    0.091766   -0.012098
      2          6           0       -4.941970   -1.170533    0.004853
      3          6           0       -6.328753   -1.213314   -0.218484
      4          6           0       -7.002632   -2.424504   -0.212842
      5          6           0       -6.312191   -3.616267    0.013202
      6          6           0       -4.940634   -3.574271    0.240283
      7          6           0       -4.249417   -2.364901    0.240740
      8          6           0       -0.474431    0.860577   -0.018027
      9          6           0       -1.218523    2.052229    0.003721
     10          6           0       -2.651490    1.845206    0.024011
     11          7           0       -3.382760    2.960053    0.042894
     12         16           0       -2.298314    4.190193    0.041470
     13          7           0       -0.885998    3.353582    0.014083
     14          6           0       -3.036354    0.485715    0.013173
     15         16           0       -1.609346   -0.495226   -0.027785
     16          8           0        8.054517   -1.577076   -0.010016
     17          6           0        6.738194   -1.891467   -0.017132
     18          6           0        5.777462   -0.743968   -0.010336
     19          6           0        6.301212    0.571355    0.003465
     20          7           0        6.788499    1.624046    0.014797
     21          6           0        4.436397   -1.034883   -0.017817
     22          6           0        3.317712   -0.170759   -0.014335
     23          6           0        3.208502    1.218811   -0.001343
     24          6           0        1.898244    1.693908   -0.001857
     25          6           0        0.932798    0.680079   -0.014568
     26         16           0        1.698955   -0.887135   -0.027690
     27          8           0        6.387007   -3.042960   -0.028360
     28          1           0       -4.973091    0.875945   -0.069114
     29          1           0       -6.870426   -0.290628   -0.400821
     30          1           0       -8.071919   -2.438539   -0.388340
     31          1           0       -6.838887   -4.562569    0.013870
     32          1           0       -4.392185   -4.490411    0.425331
     33          1           0       -3.189181   -2.369351    0.446427
     34          1           0        8.185026   -0.618623   -0.001280
     35          1           0        4.237378   -2.103645   -0.028132
     36          1           0        4.072089    1.868944    0.008468
     37          1           0        1.626597    2.739637    0.006703
 ---------------------------------------------------------------------
                    Distance matrix (angstroms):
                    1          2          3          4          5
     1  N    0.000000
     2  C    1.400981   0.000000
     3  C    2.392281   1.405303   0.000000
     4  C    3.673013   2.422016   1.386047   0.000000
     5  C    4.202564   2.803425   2.414153   1.395745   0.000000
     6  C    3.724374   2.415240   2.776951   2.403980   1.390862
     7  C    2.471108   1.400638   2.420884   2.790964   2.423371
     8  C    3.935858   4.907630   6.214040   7.310754   7.356803
     9  C    3.681408   4.924455   6.068575   7.317373   7.620852
    10  C    2.430692   3.786997   4.789114   6.100734   6.574841
    11  N    3.022555   4.415238   5.115094   6.493253   7.199336
    12  S    4.576668   5.977260   6.746103   8.120930   8.777974
    13  N    4.746795   6.076069   7.108742   8.417303   8.833027
    14  C    1.356808   2.524797   3.712177   4.924614   5.249511
    15  S    2.787667   3.400513   4.777533   5.730959   5.644407
    16  O   12.500877  13.002852  14.389379  15.082341  14.510725
    17  C   11.248868  11.702413  13.086082  13.752554  13.163905
    18  C   10.146405  10.727927  12.117098  12.891703  12.426197
    19  C   10.646497  11.377316  12.757363  13.638703  13.290380
    20  N   11.228043  12.058759  13.422643  14.374904  14.109889
    21  C    8.842930   9.379375  10.768498  11.524776  11.054259
    22  C    7.656680   8.319992   9.704787  10.565428  10.227772
    23  C    7.626710   8.493480   9.844878  10.843696  10.678098
    24  C    6.435343   7.415767   8.728250   9.809762   9.778007
    25  C    5.300018   6.159386   7.507106   8.523426   8.423136
    26  S    6.112337   6.647049   8.036597   8.838292   8.463350
    27  O   11.170352  11.482718  12.848125  13.405184  12.712200
    28  H    1.012931   2.048051   2.495022   3.877197   4.688276
    29  H    2.593921   2.158181   1.085360   2.146216   3.397487
    30  H    4.529079   3.399856   2.137441   1.083684   2.155208
    31  H    5.285417   3.886423   3.395841   2.156278   1.083004
    32  H    4.603371   3.391262   3.860590   3.389642   2.149512
    33  H    2.753002   2.168968   3.411076   3.870412   3.390527
    34  H   12.539635  13.138595  14.527581  15.296108  14.803897
    35  H    8.848536   9.226712  10.605284  11.246106  10.657539
    36  H    8.592378   9.512712  10.850315  11.879904  11.743970
    37  H    6.522718   7.644312   8.886176  10.058834  10.169656
                    6          7          8          9         10
     6  C    0.000000
     7  C    1.392967   0.000000
     8  C    6.299331   4.972041   0.000000
     9  C    6.750376   5.362232   1.405055   0.000000
    10  C    5.887078   4.508364   2.389738   1.447986   0.000000
    11  N    6.720366   5.398645   3.587463   2.347254   1.333415
    12  S    8.204163   6.842205   3.796898   2.395467   2.371498
    13  N    8.030342   6.638148   2.526953   1.343205   2.322124
    14  C    4.490139   3.106335   2.589391   2.399701   1.412959
    15  S    4.544212   3.246192   1.768143   2.577453   2.562493
    16  O   13.150110  12.331680   8.870466   9.957977  11.239740
    17  C   11.802250  11.000829   7.719826   8.880457  10.105968
    18  C   11.088328  10.160156   6.454517   7.534104   8.817723
    19  C   11.984215  10.954162   6.781847   7.664164   9.042897
    20  N   12.831442  11.738754   7.303021   8.018470   9.442584
    21  C    9.718221   8.790857   5.263934   6.442736   7.650804
    22  C    8.935827   7.882941   3.929888   5.051676   6.300552
    23  C    9.457295   8.277811   3.700352   4.504793   5.893430
    24  C    8.636121   7.370653   2.514814   3.137302   4.552322
    25  C    7.256834   6.016015   1.418762   2.551727   3.769102
    26  S    7.167751   6.135061   2.788942   4.141561   5.137580
    27  O   11.343276  10.661411   7.894114   9.154565  10.275765
    28  H    4.461076   3.335086   4.498976   3.935191   2.517533
    29  H    3.862308   3.403512   6.510035   6.131610   4.747809
    30  H    3.389690   3.874621   8.291147   8.203033   6.921095
    31  H    2.152060   3.403905   8.361688   8.680101   7.654670
    32  H    1.083675   2.138282   6.646686   7.283957   6.582638
    33  H    2.135864   1.080013   4.244764   4.861055   4.269665
    34  H   13.456491  12.558799   8.784902   9.775490  11.113108
    35  H    9.298962   8.495071   5.566674   6.858510   7.940570
    36  H   10.531453   9.339532   4.657075   5.293788   6.723639
    37  H    9.113096   7.787080   2.818829   2.926986   4.370622
                   11         12         13         14         15
    11  N    0.000000
    12  S    1.639899   0.000000
    13  N    2.527749   1.641738   0.000000
    14  C    2.498645   3.777388   3.584507   0.000000
    15  S    3.884449   4.736309   3.916415   1.732130   0.000000
    16  O   12.304456  11.850956  10.210033  11.281093   9.724246
    17  C   11.223839  10.892589   9.254178  10.059508   8.463511
    18  C    9.880904   9.463973   7.822545   8.899215   7.391015
    19  C    9.974304   9.330020   7.706938   9.337964   7.982199
    20  N   10.258665   9.442245   7.866969   9.890578   8.661231
    21  C    8.780798   8.524158   6.898372   7.625955   6.069789
    22  C    7.396052   7.110609   5.485705   6.387947   4.937749
    23  C    6.817523   6.257473   4.617620   6.287755   5.113735
    24  C    5.430850   4.883074   3.241416   5.080375   4.134751
    25  C    4.881150   4.771177   3.233645   3.974005   2.800716
    26  S    6.374140   6.462368   4.966629   4.930470   3.331433
    27  O   11.466891  11.303016   9.685771  10.062455   8.392414
    28  H    2.623967   4.260387   4.780161   1.977372   3.632712
    29  H    4.788280   6.416976   7.018959   3.933727   5.278255
    30  H    7.163726   8.801099   9.238402   5.836899   6.758056
    31  H    8.278617   9.860447   9.904662   6.320161   6.625188
    32  H    7.528254   8.937815   8.601785   5.173972   4.889889
    33  H    5.348164   6.632138   6.184136   2.891793   2.496618
    34  H   12.108780  11.533731   9.902632  11.275599   9.795185
    35  H    9.149458   9.073726   7.485459   7.720989   6.063926
    36  H    7.534353   6.780215   5.175597   7.241775   6.153805
    37  H    5.014335   4.184525   2.586526   5.179123   4.575681
                   16         17         18         19         20
    16  O    0.000000
    17  C    1.353366   0.000000
    18  C    2.424675   1.496598   0.000000
    19  C    2.773088   2.501374   1.415832   0.000000
    20  N    3.442470   3.516018   2.574940   1.160058   0.000000
    21  C    3.658528   2.456014   1.372277   2.461298   3.550120
    22  C    4.941161   3.828909   2.525659   3.074463   3.907497
    23  C    5.594723   4.704551   3.232977   3.159759   3.602895
    24  C    6.971305   6.023310   4.581664   4.543818   4.890782
    25  C    7.470853   6.349447   5.049623   5.369545   5.931372
    26  S    6.392926   5.138358   4.081056   4.827933   5.675499
    27  O    2.220302   1.203908   2.378494   3.615473   4.684443
    28  H   13.256673  12.033930  10.872073  11.278650  11.785656
    29  H   14.985380  13.707824  12.662032  13.206003  13.798730
    30  H   16.153860  14.824862  13.957787  14.690128  15.411007
    31  H   15.189708  13.837372  13.181599  14.107427  14.965957
    32  H   12.790521  11.438340  10.846537  11.838420  12.750012
    33  H   11.280815   9.949675   9.124209   9.945427  10.755818
    34  H    0.967337   1.927098   2.410842   2.228189   2.641990
    35  H    3.853330   2.509825   2.054482   3.378762   4.517271
    36  H    5.266415   4.609714   3.120250   2.579293   2.727434
    37  H    7.742896   6.897544   5.418992   5.153007   5.281083
                   21         22         23         24         25
    21  C    0.000000
    22  C    1.413569   0.000000
    23  C    2.566541   1.393915   0.000000
    24  C    3.726765   2.343508   1.393734   0.000000
    25  C    3.900809   2.532141   2.338640   1.400035   0.000000
    26  S    2.741444   1.770239   2.591223   2.588854   1.744514
    27  O    2.799529   4.203606   5.316608   6.525919   6.603757
    28  H    9.601685   8.356794   8.189055   6.920176   5.909388
    29  H   11.337762  10.196171  10.199156   8.999285   7.872850
    30  H   12.592280  11.619225  11.864817  10.799567   9.536793
    31  H   11.814297  11.065500  11.592006  10.746218   9.374714
    32  H    9.491097   8.848458   9.515656   8.831636   7.435249
    33  H    7.755370   6.883732   7.348861   6.526326   5.148034
    34  H    3.771706   4.887893   5.304899   6.698614   7.367606
    35  H    1.087183   2.140566   3.478220   4.460229   4.320828
    36  H    2.926708   2.174855   1.080996   2.180905   3.356945
    37  H    4.705590   3.366113   2.194402   1.080470   2.173382
                   26         27         28         29         30
    26  S    0.000000
    27  O    5.159982   0.000000
    28  H    6.901186  12.017125   0.000000
    29  H    8.598217  13.545242   2.251844   0.000000
    30  H    9.899844  14.476030   4.548675   2.461151   0.000000
    31  H    9.295444  13.312974   5.750262   4.292137   2.488703
    32  H    7.091602  10.885400   5.420305   4.945946   4.291000
    33  H    5.129876   9.611584   3.738992   4.311668   4.954064
    34  H    6.491680   3.018446  13.242899  15.064324  16.363073
    35  H    2.814869   2.345894   9.680515  11.260961  12.319119
    36  H    3.637175   5.430194   9.099854  11.161089  12.891423
    37  H    3.627657   7.490071   6.858205   9.030392  11.001399
                   31         32         33         34         35
    31  H    0.000000
    32  H    2.482107   0.000000
    33  H    4.279914   2.438557   0.000000
    34  H   15.532962  13.166586  11.516860   0.000000
    35  H   11.346000   8.965023   7.446448   4.217812   0.000000
    36  H   12.665456  10.595240   8.419085   4.806697   3.976195
    37  H   11.179744   9.416718   7.034688   7.368240   5.502251
                   36         37
    36  H    0.000000
    37  H    2.595870   0.000000
 Stoichiometry    C18H10N4O2S3
 Framework group  C1[X(C18H10N4O2S3)]
 Deg. of freedom   105
 Full point group                 C1      NOp   1
 Largest Abelian subgroup         C1      NOp   1
 Largest concise Abelian subgroup C1      NOp   1
                         Standard orientation:                         
 ---------------------------------------------------------------------
 Center     Atomic      Atomic             Coordinates (Angstroms)
 Number     Number       Type             X           Y           Z
 ---------------------------------------------------------------------
      1          7           0       -4.334466    0.091766   -0.012098
      2          6           0       -4.941970   -1.170533    0.004853
      3          6           0       -6.328753   -1.213314   -0.218484
      4          6           0       -7.002632   -2.424504   -0.212842
      5          6           0       -6.312191   -3.616267    0.013202
      6          6           0       -4.940634   -3.574271    0.240283
      7          6           0       -4.249417   -2.364901    0.240740
      8          6           0       -0.474431    0.860577   -0.018027
      9          6           0       -1.218523    2.052229    0.003721
     10          6           0       -2.651490    1.845206    0.024011
     11          7           0       -3.382760    2.960053    0.042894
     12         16           0       -2.298314    4.190193    0.041470
     13          7           0       -0.885998    3.353582    0.014083
     14          6           0       -3.036354    0.485715    0.013173
     15         16           0       -1.609346   -0.495226   -0.027785
     16          8           0        8.054517   -1.577076   -0.010016
     17          6           0        6.738194   -1.891467   -0.017132
     18          6           0        5.777462   -0.743968   -0.010336
     19          6           0        6.301212    0.571355    0.003465
     20          7           0        6.788499    1.624046    0.014797
     21          6           0        4.436397   -1.034883   -0.017817
     22          6           0        3.317712   -0.170759   -0.014335
     23          6           0        3.208502    1.218811   -0.001343
     24          6           0        1.898244    1.693908   -0.001857
     25          6           0        0.932798    0.680079   -0.014568
     26         16           0        1.698955   -0.887135   -0.027690
     27          8           0        6.387007   -3.042960   -0.028360
     28          1           0       -4.973091    0.875945   -0.069114
     29          1           0       -6.870426   -0.290628   -0.400821
     30          1           0       -8.071919   -2.438539   -0.388340
     31          1           0       -6.838887   -4.562569    0.013870
     32          1           0       -4.392185   -4.490411    0.425331
     33          1           0       -3.189181   -2.369351    0.446427
     34          1           0        8.185026   -0.618623   -0.001280
     35          1           0        4.237378   -2.103645   -0.028132
     36          1           0        4.072089    1.868944    0.008468
     37          1           0        1.626597    2.739637    0.006703
 ---------------------------------------------------------------------
 Rotational constants (GHZ):      0.2686722      0.0634091      0.0513367
 Standard basis: 6-311G(d,p) (5D, 7F)
 There are   597 symmetry adapted cartesian basis functions of A   symmetry.
 There are   570 symmetry adapted basis functions of A   symmetry.
   570 basis functions,   986 primitive gaussians,   597 cartesian basis functions
   105 alpha electrons      105 beta electrons
       nuclear repulsion energy      2574.7241130391 Hartrees.
 NAtoms=   37 NActive=   37 NUniq=   37 SFac= 1.00D+00 NAtFMM=   60 NAOKFM=F Big=F
 Integral buffers will be    131072 words long.
 Regular integral format.
 Two-electron integral symmetry is turned on.
 One-electron integrals computed using PRISM.
 NBasis=   570 RedAO= T EigKep=  1.81D-04  NBF=   570
 NBsUse=   570 1.00D-06 EigRej= -1.00D+00 NBFU=   570
 ExpMin= 7.71D-02 ExpMax= 9.34D+04 ExpMxC= 3.17D+03 IAcc=2 IRadAn=         4 AccDes= 0.00D+00
 Harris functional with IExCor=  402 and IRadAn=       4 diagonalized for initial guess.
 HarFok:  IExCor=  402 AccDes= 0.00D+00 IRadAn=         4 IDoV= 1 UseB2=F ITyADJ=14
 ICtDFT=  3500011 ScaDFX=  1.000000  1.000000  1.000000  1.000000
 FoFCou: FMM=F IPFlag=           0 FMFlag=      100000 FMFlg1=           0
         NFxFlg=           0 DoJE=T BraDBF=F KetDBF=T FulRan=T
         wScrn=  0.000000 ICntrl=     500 IOpCl=  0 I1Cent=   200000004 NGrid=           0
         NMat0=    1 NMatS0=      1 NMatT0=    0 NMatD0=    1 NMtDS0=    0 NMtDT0=    0
 Petite list used in FoFCou.
 Requested convergence on RMS density matrix=1.00D-08 within 128 cycles.
 Requested convergence on MAX density matrix=1.00D-06.
 Requested convergence on             energy=1.00D-06.
 No special actions if energy rises.
 Integral accuracy reduced to 1.0D-05 until final iterations.
 Initial convergence to 1.0D-05 achieved.  Increase integral accuracy.
 SCF Done:  E(RBHandHLYP) =  -2255.51136312     A.U. after   18 cycles
            NFock= 18  Conv=0.47D-08     -V/T= 2.0024
 DoSCS=F DFT=T ScalE2(SS,OS)=  1.000000  1.000000
 ExpMin= 7.71D-02 ExpMax= 9.34D+04 ExpMxC= 3.17D+03 IAcc=3 IRadAn=         5 AccDes= 0.00D+00
 HarFok:  IExCor=  205 AccDes= 0.00D+00 IRadAn=         5 IDoV=-2 UseB2=F ITyADJ=14
 ICtDFT= 12500011 ScaDFX=  1.000000  1.000000  1.000000  1.000000
 Range of M.O.s used for correlation:    40   570
 NBasis=   570 NAE=   105 NBE=   105 NFC=    39 NFV=     0
 NROrb=    531 NOA=    66 NOB=    66 NVA=   465 NVB=   465

 **** Warning!!: The largest alpha MO coefficient is  0.19317393D+02

 Would need an additional         38766100000 words for in-memory AO integral storage.
 Orbital symmetries:
       Occupied  (A) (A) (A) (A) (A) (A) (A) (A) (A) (A) (A) (A)
                 (A) (A) (A) (A) (A) (A) (A) (A) (A) (A) (A) (A)
                 (A) (A) (A) (A) (A) (A) (A) (A) (A) (A) (A) (A)
                 (A) (A) (A) (A) (A) (A) (A) (A) (A) (A) (A) (A)
                 (A) (A) (A) (A) (A) (A) (A) (A) (A) (A) (A) (A)
                 (A) (A) (A) (A) (A) (A) (A) (A) (A) (A) (A) (A)
                 (A) (A) (A) (A) (A) (A) (A) (A) (A) (A) (A) (A)
                 (A) (A) (A) (A) (A) (A) (A) (A) (A) (A) (A) (A)
                 (A) (A) (A) (A) (A) (A) (A) (A) (A)
       Virtual   (A) (A) (A) (A) (A) (A) (A) (A) (A) (A) (A) (A)
                 (A) (A) (A) (A) (A) (A) (A) (A) (A) (A) (A) (A)
                 (A) (A) (A) (A) (A) (A) (A) (A) (A) (A) (A) (A)
                 (A) (A) (A) (A) (A) (A) (A) (A) (A) (A) (A) (A)
                 (A) (A) (A) (A) (A) (A) (A) (A) (A) (A) (A) (A)
                 (A) (A) (A) (A) (A) (A) (A) (A) (A) (A) (A) (A)
                 (A) (A) (A) (A) (A) (A) (A) (A) (A) (A) (A) (A)
                 (A) (A) (A) (A) (A) (A) (A) (A) (A) (A) (A) (A)
                 (A) (A) (A) (A) (A) (A) (A) (A) (A) (A) (A) (A)
                 (A) (A) (A) (A) (A) (A) (A) (A) (A) (A) (A) (A)
                 (A) (A) (A) (A) (A) (A) (A) (A) (A) (A) (A) (A)
                 (A) (A) (A) (A) (A) (A) (A) (A) (A) (A) (A) (A)
                 (A) (A) (A) (A) (A) (A) (A) (A) (A) (A) (A) (A)
                 (A) (A) (A) (A) (A) (A) (A) (A) (A) (A) (A) (A)
                 (A) (A) (A) (A) (A) (A) (A) (A) (A) (A) (A) (A)
                 (A) (A) (A) (A) (A) (A) (A) (A) (A) (A) (A) (A)
                 (A) (A) (A) (A) (A) (A) (A) (A) (A) (A) (A) (A)
                 (A) (A) (A) (A) (A) (A) (A) (A) (A) (A) (A) (A)
                 (A) (A) (A) (A) (A) (A) (A) (A) (A) (A) (A) (A)
                 (A) (A) (A) (A) (A) (A) (A) (A) (A) (A) (A) (A)
                 (A) (A) (A) (A) (A) (A) (A) (A) (A) (A) (A) (A)
                 (A) (A) (A) (A) (A) (A) (A) (A) (A) (A) (A) (A)
                 (A) (A) (A) (A) (A) (A) (A) (A) (A) (A) (A) (A)
                 (A) (A) (A) (A) (A) (A) (A) (A) (A) (A) (A) (A)
                 (A) (A) (A) (A) (A) (A) (A) (A) (A) (A) (A) (A)
                 (A) (A) (A) (A) (A) (A) (A) (A) (A) (A) (A) (A)
                 (A) (A) (A) (A) (A) (A) (A) (A) (A) (A) (A) (A)
                 (A) (A) (A) (A) (A) (A) (A) (A) (A) (A) (A) (A)
                 (A) (A) (A) (A) (A) (A) (A) (A) (A) (A) (A) (A)
                 (A) (A) (A) (A) (A) (A) (A) (A) (A) (A) (A) (A)
                 (A) (A) (A) (A) (A) (A) (A) (A) (A) (A) (A) (A)
                 (A) (A) (A) (A) (A) (A) (A) (A) (A) (A) (A) (A)
                 (A) (A) (A) (A) (A) (A) (A) (A) (A) (A) (A) (A)
                 (A) (A) (A) (A) (A) (A) (A) (A) (A) (A) (A) (A)
                 (A) (A) (A) (A) (A) (A) (A) (A) (A) (A) (A) (A)
                 (A) (A) (A) (A) (A) (A) (A) (A) (A) (A) (A) (A)
                 (A) (A) (A) (A) (A) (A) (A) (A) (A) (A) (A) (A)
                 (A) (A) (A) (A) (A) (A) (A) (A) (A) (A) (A) (A)
                 (A) (A) (A) (A) (A) (A) (A) (A) (A)
    40 initial guesses have been made.
 Convergence on wavefunction:    0.001000000000000
 Iteration     1 Dimension    40 NMult     0 NNew     40
 CISAX will form    40 AO SS matrices at one time.
 New state      4 was old state      6
 New state      5 was old state      4
 New state      6 was old state      5
 New state      7 was old state      9
 New state      8 was old state      7
 New state      9 was old state      8
 New state     10 was old state     14
 Iteration     2 Dimension    60 NMult    40 NNew     20
 New state      7 was old state      8
 New state      8 was old state      7
 Iteration     3 Dimension    80 NMult    60 NNew     20
 Iteration     4 Dimension   100 NMult    80 NNew     20
 Iteration     5 Dimension   120 NMult   100 NNew     20
 Iteration     6 Dimension   134 NMult   120 NNew     14
 Iteration     7 Dimension   142 NMult   134 NNew      8
 Iteration     8 Dimension   146 NMult   142 NNew      4
 Iteration     9 Dimension   150 NMult   146 NNew      4
 Iteration    10 Dimension   154 NMult   150 NNew      4
 Iteration    11 Dimension   158 NMult   154 NNew      4
 Iteration    12 Dimension   160 NMult   158 NNew      2
 Convergence on energies, max DE= 8.65D-06.
 ***********************************************************************
 Excited states from <AA,BB:AA,BB> singles matrix:
 ***********************************************************************
 
 Ground to excited state transition densities written to RWF  633
 Ground to excited state transition electric dipole moments (Au):
       state          X           Y           Z        Dip. S.      Osc.
         1        -2.7376     -0.5071      0.0135      7.7520      0.3368
         2        -3.6292      0.6935      0.0078     13.6522      0.9800
         3        -0.0308     -1.2336     -0.0009      1.5226      0.1389
         4         0.0822      0.0679      0.0018      0.0114      0.0011
         5        -0.3212      0.2083     -0.0037      0.1466      0.0154
         6         0.7023      1.1985      0.0099      1.9296      0.2065
         7         0.3506      0.1839     -0.0242      0.1573      0.0174
         8         0.0461     -0.2549     -0.0222      0.0676      0.0076
         9         0.2452     -1.2154     -0.0096      1.5375      0.1773
        10         0.5246      0.0757      0.0097      0.2811      0.0330
 Ground to excited state transition velocity dipole moments (Au):
       state          X           Y           Z        Dip. S.      Osc.
         1         0.1795      0.0312     -0.0004      0.0332      0.3396
         2         0.3808     -0.0744     -0.0003      0.1505      0.9319
         3        -0.0024      0.1650      0.0002      0.0272      0.1327
         4        -0.0121     -0.0075     -0.0050      0.0002      0.0011
         5         0.0431     -0.0314      0.0004      0.0028      0.0120
         6        -0.1141     -0.1866     -0.0018      0.0478      0.1987
         7        -0.0494     -0.0383      0.0022      0.0039      0.0157
         8        -0.0022      0.0358      0.0043      0.0013      0.0051
         9        -0.0447      0.1838     -0.0002      0.0358      0.1379
        10        -0.0923     -0.0149     -0.0015      0.0087      0.0330
 Ground to excited state transition magnetic dipole moments (Au):
       state          X           Y           Z
         1        -0.0057     -0.0067     -0.8453
         2        -0.0027     -0.0168     -0.8496
         3        -0.0102     -0.0078     -1.0210
         4        -0.0893      0.1183     -0.0369
         5         0.0016     -0.0155      0.7289
         6         0.0140     -0.0109      1.1610
         7        -0.0179      0.0687      0.4284
         8        -0.0359      0.1242      0.2985
         9         0.0089     -0.0595     -0.9108
        10         0.0307     -0.1330     -0.4395
 Ground to excited state transition velocity quadrupole moments (Au):
       state          XX          YY          ZZ          XY          XZ          YZ
         1        -0.2702     -0.0211      0.0098     -0.3639     -0.0079      0.0036
         2         2.3813     -0.4571     -0.0116     -0.5018     -0.0052      0.0061
         3        -2.8618      0.3781      0.0432     -0.9772     -0.0098      0.0135
         4         0.2416     -0.0413     -0.0015      0.0715     -0.0180     -0.0660
         5         1.5308     -0.2223     -0.0285      0.2492      0.0068     -0.0034
         6         1.9680      0.0178     -0.0167      1.4947      0.0268     -0.0193
         7         2.9359      0.9623     -0.0106     -0.2377     -0.0193     -0.0118
         8        -0.7771      0.4452     -0.0013      0.2284     -0.0723     -0.0186
         9         0.6691      1.4714     -0.0269     -0.5937      0.0355      0.0042
        10        -2.4895     -0.5124      0.0308      0.3122      0.0256      0.0054
 <0|del|b> * <b|rxdel|0> + <0|del|b> * <b|delr+rdel|0>
 Rotatory Strengths (R) in cgs (10**-40 erg-esu-cm/Gauss)
       state          XX          YY          ZZ    R(velocity)    E-M Angle
         1         2.9261     -0.9213    -11.5798     -3.1917       90.33
         2         4.2960      4.6521     -5.6005      1.1159       89.91
         3        -0.1896     -0.0437     -7.3571     -2.5301       90.50
         4        -3.0156      6.1005     -1.1864      0.6329       80.61
         5         2.3612      0.2124      1.0927      1.2221       88.79
         6         4.8518      2.6756    -14.9128     -2.4618       90.38
         7        -6.2857      6.2047     -3.3979     -1.1597       91.73
         8        19.4253      0.8780      3.9646      8.0893       60.40
         9       -34.9178     -1.0347     -9.4121    -15.1215       93.68
        10         5.1239     -4.4281     -1.4721     -0.2587       90.26
 1/2[<0|r|b>*<b|rxdel|0> + (<0|rxdel|b>*<b|r|0>)*]
 Rotatory Strengths (R) in cgs (10**-40 erg-esu-cm/Gauss)
       state          XX          YY          ZZ     R(length)
         1       -11.0558     -2.4003      8.0716     -1.7948
         2        -6.8666      8.2332      4.6983      2.0216
         3        -0.2213     -6.7966     -0.6219     -2.5466
         4         5.1900     -5.6846      0.0471     -0.1491
         5         0.3583      2.2786      1.8893      1.5088
         6        -6.9612      9.2372     -8.0960     -1.9400
         7         4.4297     -8.9387      7.3383      0.9431
         8         1.1695     22.3957      4.6835      9.4162
         9        -1.5360    -51.1026     -6.1806    -19.6064
        10       -11.3958      7.1181      3.0072     -0.4235
  1/2[<0|del|b>*<b|r|0> + (<0|r|b>*<b|del|0>)*] (Au)
       state          X           Y           Z        Dip. S.   Osc.(frdel)
         1        -0.4914     -0.0158      0.0000      0.5072      0.3382
         2        -1.3819     -0.0516      0.0000      1.4335      0.9557
         3         0.0001     -0.2035      0.0000      0.2034      0.1356
         4        -0.0010     -0.0005      0.0000      0.0015      0.0010
         5        -0.0138     -0.0065      0.0000      0.0204      0.0136
         6        -0.0801     -0.2236      0.0000      0.3037      0.2025
         7        -0.0173     -0.0070     -0.0001      0.0244      0.0163
         8        -0.0001     -0.0091     -0.0001      0.0093      0.0062
         9        -0.0110     -0.2234      0.0000      0.2344      0.1562
        10        -0.0484     -0.0011      0.0000      0.0496      0.0330

 Excitation energies and oscillator strengths:
 
 Excited State   1:      Singlet-A      1.7733 eV  699.18 nm  f=0.3368  <S**2>=0.000
     105 ->106         0.69812
 This state for optimization and/or second-order correction.
 Total Energy, E(TD-HF/TD-KS) =  -2255.44619625    
 Copying the excited state density for this state as the 1-particle RhoCI density.
 
 Excited State   2:      Singlet-A      2.9301 eV  423.15 nm  f=0.9800  <S**2>=0.000
     105 ->107         0.69082
 
 Excited State   3:      Singlet-A      3.7224 eV  333.08 nm  f=0.1389  <S**2>=0.000
     104 ->106         0.68658
 
 Excited State   4:      Singlet-A      3.8216 eV  324.43 nm  f=0.0011  <S**2>=0.000
     105 ->108         0.51114
     105 ->110         0.44141
     105 ->112        -0.11050
 
 Excited State   5:      Singlet-A      4.3016 eV  288.23 nm  f=0.0154  <S**2>=0.000
     100 ->106        -0.13885
     102 ->106         0.19112
     103 ->106         0.56229
     103 ->107         0.12235
     105 ->109         0.28416
     105 ->111        -0.10174
 
 Excited State   6:      Singlet-A      4.3671 eV  283.90 nm  f=0.2065  <S**2>=0.000
     102 ->106         0.50388
     103 ->106        -0.35413
     105 ->109         0.23509
 
 Excited State   7:      Singlet-A      4.5251 eV  273.99 nm  f=0.0174  <S**2>=0.000
     100 ->106         0.13426
     101 ->106         0.13457
     102 ->106        -0.31076
     103 ->106        -0.14585
     104 ->107        -0.10057
     105 ->109         0.54376
 
 Excited State   8:      Singlet-A      4.6051 eV  269.23 nm  f=0.0076  <S**2>=0.000
     100 ->106         0.15271
     101 ->106         0.40612
     102 ->106         0.23188
     104 ->108        -0.11952
     105 ->108        -0.28143
     105 ->110         0.33478
 
 Excited State   9:      Singlet-A      4.7071 eV  263.40 nm  f=0.1773  <S**2>=0.000
     100 ->106         0.61155
     102 ->106         0.13309
     105 ->108         0.15958
     105 ->110        -0.16111
 
 Excited State  10:      Singlet-A      4.7975 eV  258.43 nm  f=0.0330  <S**2>=0.000
     102 ->107         0.13171
     103 ->107        -0.13380
     104 ->107         0.64705
     105 ->109         0.10299
 SavETr:  write IOETrn=   770 NScale= 10 NData=  16 NLR=1 NState=   10 LETran=     190.

 **********************************************************************

            Population analysis using the SCF density.

 **********************************************************************

 Orbital symmetries:
       Occupied  (A) (A) (A) (A) (A) (A) (A) (A) (A) (A) (A) (A)
                 (A) (A) (A) (A) (A) (A) (A) (A) (A) (A) (A) (A)
                 (A) (A) (A) (A) (A) (A) (A) (A) (A) (A) (A) (A)
                 (A) (A) (A) (A) (A) (A) (A) (A) (A) (A) (A) (A)
                 (A) (A) (A) (A) (A) (A) (A) (A) (A) (A) (A) (A)
                 (A) (A) (A) (A) (A) (A) (A) (A) (A) (A) (A) (A)
                 (A) (A) (A) (A) (A) (A) (A) (A) (A) (A) (A) (A)
                 (A) (A) (A) (A) (A) (A) (A) (A) (A) (A) (A) (A)
                 (A) (A) (A) (A) (A) (A) (A) (A) (A)
       Virtual   (A) (A) (A) (A) (A) (A) (A) (A) (A) (A) (A) (A)
                 (A) (A) (A) (A) (A) (A) (A) (A) (A) (A) (A) (A)
                 (A) (A) (A) (A) (A) (A) (A) (A) (A) (A) (A) (A)
                 (A) (A) (A) (A) (A) (A) (A) (A) (A) (A) (A) (A)
                 (A) (A) (A) (A) (A) (A) (A) (A) (A) (A) (A) (A)
                 (A) (A) (A) (A) (A) (A) (A) (A) (A) (A) (A) (A)
                 (A) (A) (A) (A) (A) (A) (A) (A) (A) (A) (A) (A)
                 (A) (A) (A) (A) (A) (A) (A) (A) (A) (A) (A) (A)
                 (A) (A) (A) (A) (A) (A) (A) (A) (A) (A) (A) (A)
                 (A) (A) (A) (A) (A) (A) (A) (A) (A) (A) (A) (A)
                 (A) (A) (A) (A) (A) (A) (A) (A) (A) (A) (A) (A)
                 (A) (A) (A) (A) (A) (A) (A) (A) (A) (A) (A) (A)
                 (A) (A) (A) (A) (A) (A) (A) (A) (A) (A) (A) (A)
                 (A) (A) (A) (A) (A) (A) (A) (A) (A) (A) (A) (A)
                 (A) (A) (A) (A) (A) (A) (A) (A) (A) (A) (A) (A)
                 (A) (A) (A) (A) (A) (A) (A) (A) (A) (A) (A) (A)
                 (A) (A) (A) (A) (A) (A) (A) (A) (A) (A) (A) (A)
                 (A) (A) (A) (A) (A) (A) (A) (A) (A) (A) (A) (A)
                 (A) (A) (A) (A) (A) (A) (A) (A) (A) (A) (A) (A)
                 (A) (A) (A) (A) (A) (A) (A) (A) (A) (A) (A) (A)
                 (A) (A) (A) (A) (A) (A) (A) (A) (A) (A) (A) (A)
                 (A) (A) (A) (A) (A) (A) (A) (A) (A) (A) (A) (A)
                 (A) (A) (A) (A) (A) (A) (A) (A) (A) (A) (A) (A)
                 (A) (A) (A) (A) (A) (A) (A) (A) (A) (A) (A) (A)
                 (A) (A) (A) (A) (A) (A) (A) (A) (A) (A) (A) (A)
                 (A) (A) (A) (A) (A) (A) (A) (A) (A) (A) (A) (A)
                 (A) (A) (A) (A) (A) (A) (A) (A) (A) (A) (A) (A)
                 (A) (A) (A) (A) (A) (A) (A) (A) (A) (A) (A) (A)
                 (A) (A) (A) (A) (A) (A) (A) (A) (A) (A) (A) (A)
                 (A) (A) (A) (A) (A) (A) (A) (A) (A) (A) (A) (A)
                 (A) (A) (A) (A) (A) (A) (A) (A) (A) (A) (A) (A)
                 (A) (A) (A) (A) (A) (A) (A) (A) (A) (A) (A) (A)
                 (A) (A) (A) (A) (A) (A) (A) (A) (A) (A) (A) (A)
                 (A) (A) (A) (A) (A) (A) (A) (A) (A) (A) (A) (A)
                 (A) (A) (A) (A) (A) (A) (A) (A) (A) (A) (A) (A)
                 (A) (A) (A) (A) (A) (A) (A) (A) (A) (A) (A) (A)
                 (A) (A) (A) (A) (A) (A) (A) (A) (A) (A) (A) (A)
                 (A) (A) (A) (A) (A) (A) (A) (A) (A) (A) (A) (A)
                 (A) (A) (A) (A) (A) (A) (A) (A) (A)
 The electronic state is 1-A.
 Alpha  occ. eigenvalues --  -90.16787 -90.13075 -90.08730 -19.71240 -19.64816
 Alpha  occ. eigenvalues --  -14.89832 -14.87669 -14.85687 -14.80526 -10.72866
 Alpha  occ. eigenvalues --  -10.72482 -10.67928 -10.67390 -10.67198 -10.66283
 Alpha  occ. eigenvalues --  -10.64727 -10.64164 -10.63533 -10.63195 -10.62685
 Alpha  occ. eigenvalues --  -10.62392 -10.62261 -10.62146 -10.62079 -10.61575
 Alpha  occ. eigenvalues --  -10.61331 -10.60042  -8.45056  -8.41732  -8.37510
 Alpha  occ. eigenvalues --   -6.30871  -6.30448  -6.30291  -6.27504  -6.27211
 Alpha  occ. eigenvalues --   -6.26963  -6.23287  -6.23022  -6.22711  -1.23847
 Alpha  occ. eigenvalues --   -1.18460  -1.15122  -1.14890  -1.04722  -1.04501
 Alpha  occ. eigenvalues --   -1.03793  -1.01896  -1.00113  -0.95074  -0.91049
 Alpha  occ. eigenvalues --   -0.90034  -0.89225  -0.88167  -0.86324  -0.82990
 Alpha  occ. eigenvalues --   -0.78207  -0.76491  -0.74949  -0.74574  -0.71082
 Alpha  occ. eigenvalues --   -0.70538  -0.69713  -0.67160  -0.66139  -0.64505
 Alpha  occ. eigenvalues --   -0.63361  -0.62821  -0.60380  -0.60034  -0.56763
 Alpha  occ. eigenvalues --   -0.56100  -0.55296  -0.54684  -0.53539  -0.53184
 Alpha  occ. eigenvalues --   -0.52282  -0.52221  -0.51968  -0.51870  -0.50455
 Alpha  occ. eigenvalues --   -0.48625  -0.48308  -0.46690  -0.46365  -0.46021
 Alpha  occ. eigenvalues --   -0.45826  -0.45002  -0.44793  -0.44463  -0.43797
 Alpha  occ. eigenvalues --   -0.42991  -0.42696  -0.41569  -0.40763  -0.40178
 Alpha  occ. eigenvalues --   -0.39976  -0.38512  -0.36330  -0.34528  -0.34438
 Alpha  occ. eigenvalues --   -0.33095  -0.32076  -0.31770  -0.29053  -0.22225
 Alpha virt. eigenvalues --   -0.10265  -0.05781  -0.00184   0.00098   0.00373
 Alpha virt. eigenvalues --    0.02573   0.02961   0.04499   0.05711   0.06550
 Alpha virt. eigenvalues --    0.07042   0.07230   0.07884   0.08136   0.08403
 Alpha virt. eigenvalues --    0.09777   0.09966   0.10296   0.10837   0.11903
 Alpha virt. eigenvalues --    0.13643   0.14040   0.14853   0.15033   0.16071
 Alpha virt. eigenvalues --    0.16713   0.17187   0.18126   0.19015   0.19352
 Alpha virt. eigenvalues --    0.19729   0.21158   0.21824   0.22006   0.23475
 Alpha virt. eigenvalues --    0.24555   0.24902   0.25341   0.26485   0.27796
 Alpha virt. eigenvalues --    0.28373   0.29239   0.29478   0.30553   0.31424
 Alpha virt. eigenvalues --    0.32353   0.33347   0.33918   0.34304   0.35839
 Alpha virt. eigenvalues --    0.37103   0.37720   0.38094   0.38902   0.40012
 Alpha virt. eigenvalues --    0.40903   0.41057   0.41243   0.41860   0.42321
 Alpha virt. eigenvalues --    0.43016   0.43352   0.43777   0.44162   0.44708
 Alpha virt. eigenvalues --    0.45176   0.45658   0.45849   0.46452   0.46673
 Alpha virt. eigenvalues --    0.46859   0.47482   0.47703   0.47722   0.48363
 Alpha virt. eigenvalues --    0.48623   0.48784   0.49448   0.50574   0.51504
 Alpha virt. eigenvalues --    0.52238   0.52558   0.53138   0.54102   0.54259
 Alpha virt. eigenvalues --    0.54561   0.55785   0.56227   0.57157   0.57625
 Alpha virt. eigenvalues --    0.58357   0.58931   0.59777   0.60183   0.61796
 Alpha virt. eigenvalues --    0.62433   0.63097   0.63454   0.63853   0.64565
 Alpha virt. eigenvalues --    0.65259   0.65434   0.65604   0.65791   0.66746
 Alpha virt. eigenvalues --    0.67125   0.67585   0.67759   0.68135   0.69380
 Alpha virt. eigenvalues --    0.70223   0.71026   0.71417   0.71709   0.72288
 Alpha virt. eigenvalues --    0.72957   0.74251   0.75013   0.75105   0.76185
 Alpha virt. eigenvalues --    0.76624   0.77570   0.77914   0.78837   0.79569
 Alpha virt. eigenvalues --    0.80863   0.81526   0.82083   0.83068   0.83132
 Alpha virt. eigenvalues --    0.84400   0.84670   0.84758   0.84980   0.85339
 Alpha virt. eigenvalues --    0.86172   0.87254   0.87720   0.88829   0.89145
 Alpha virt. eigenvalues --    0.89606   0.89957   0.90523   0.91499   0.91639
 Alpha virt. eigenvalues --    0.93126   0.93742   0.94503   0.95049   0.95634
 Alpha virt. eigenvalues --    0.96176   0.97151   0.98137   1.00001   1.00875
 Alpha virt. eigenvalues --    1.01574   1.02092   1.02246   1.02505   1.03259
 Alpha virt. eigenvalues --    1.04092   1.04328   1.04924   1.05821   1.06307
 Alpha virt. eigenvalues --    1.06938   1.07892   1.08729   1.09368   1.10396
 Alpha virt. eigenvalues --    1.11228   1.11457   1.12708   1.12766   1.13195
 Alpha virt. eigenvalues --    1.13263   1.14330   1.14949   1.16205   1.16963
 Alpha virt. eigenvalues --    1.17796   1.18377   1.19320   1.19860   1.21009
 Alpha virt. eigenvalues --    1.21307   1.22290   1.28160   1.29202   1.31906
 Alpha virt. eigenvalues --    1.32340   1.33107   1.34822   1.36269   1.37040
 Alpha virt. eigenvalues --    1.37496   1.38091   1.38193   1.39942   1.40596
 Alpha virt. eigenvalues --    1.41859   1.43506   1.45082   1.47945   1.48608
 Alpha virt. eigenvalues --    1.50044   1.50236   1.50285   1.51507   1.52503
 Alpha virt. eigenvalues --    1.54300   1.54508   1.55294   1.57239   1.57513
 Alpha virt. eigenvalues --    1.58583   1.60771   1.60861   1.61106   1.61516
 Alpha virt. eigenvalues --    1.61940   1.62765   1.63104   1.64954   1.65002
 Alpha virt. eigenvalues --    1.65564   1.66981   1.67245   1.68337   1.69067
 Alpha virt. eigenvalues --    1.69543   1.71012   1.71827   1.73439   1.74682
 Alpha virt. eigenvalues --    1.76249   1.77012   1.77060   1.77602   1.79683
 Alpha virt. eigenvalues --    1.81042   1.81503   1.82364   1.83382   1.83987
 Alpha virt. eigenvalues --    1.84486   1.84732   1.87050   1.87893   1.87965
 Alpha virt. eigenvalues --    1.89219   1.90327   1.90396   1.90683   1.92558
 Alpha virt. eigenvalues --    1.93839   1.94353   1.95297   1.96582   1.98189
 Alpha virt. eigenvalues --    1.98525   1.98655   1.98937   1.99398   2.00138
 Alpha virt. eigenvalues --    2.02104   2.03123   2.03446   2.03696   2.04430
 Alpha virt. eigenvalues --    2.04824   2.08067   2.09461   2.10844   2.11199
 Alpha virt. eigenvalues --    2.11996   2.13004   2.13670   2.15332   2.17597
 Alpha virt. eigenvalues --    2.18854   2.19257   2.19432   2.19543   2.22122
 Alpha virt. eigenvalues --    2.22230   2.24395   2.25694   2.26589   2.27981
 Alpha virt. eigenvalues --    2.29301   2.31424   2.34821   2.35033   2.36732
 Alpha virt. eigenvalues --    2.37438   2.37901   2.40079   2.40575   2.43086
 Alpha virt. eigenvalues --    2.44986   2.46745   2.48186   2.50002   2.52373
 Alpha virt. eigenvalues --    2.53358   2.54080   2.55035   2.55692   2.57348
 Alpha virt. eigenvalues --    2.58885   2.59993   2.60912   2.64509   2.65721
 Alpha virt. eigenvalues --    2.66925   2.67979   2.68276   2.68431   2.69438
 Alpha virt. eigenvalues --    2.70214   2.70321   2.70960   2.72772   2.73218
 Alpha virt. eigenvalues --    2.74380   2.74899   2.75861   2.76602   2.77073
 Alpha virt. eigenvalues --    2.77419   2.79197   2.80319   2.80840   2.81571
 Alpha virt. eigenvalues --    2.82480   2.83603   2.83828   2.86446   2.89251
 Alpha virt. eigenvalues --    2.89678   2.90642   2.91625   2.92141   2.95759
 Alpha virt. eigenvalues --    2.95848   2.97854   2.99954   3.00812   3.01779
 Alpha virt. eigenvalues --    3.02832   3.03275   3.04119   3.04239   3.05177
 Alpha virt. eigenvalues --    3.07534   3.07890   3.08846   3.11558   3.13122
 Alpha virt. eigenvalues --    3.13441   3.15705   3.16805   3.19468   3.21665
 Alpha virt. eigenvalues --    3.25397   3.26084   3.28555   3.29033   3.32516
 Alpha virt. eigenvalues --    3.32646   3.33381   3.35480   3.36826   3.38456
 Alpha virt. eigenvalues --    3.43708   3.44683   3.45324   3.48408   3.49653
 Alpha virt. eigenvalues --    3.50529   3.51831   3.54333   3.57629   3.58890
 Alpha virt. eigenvalues --    3.60239   3.64471   3.66075   3.69948   3.72981
 Alpha virt. eigenvalues --    3.75027   3.76907   3.84144   3.86072   3.90230
 Alpha virt. eigenvalues --    3.90601   3.93609   3.98611   4.00399   4.02062
 Alpha virt. eigenvalues --    4.04257   4.07912   4.09366   4.10652   4.12792
 Alpha virt. eigenvalues --    4.16179   4.19658   4.21291   4.22319   4.25852
 Alpha virt. eigenvalues --    4.27971   4.33407   4.50349   4.62056   4.71455
 Alpha virt. eigenvalues --    4.82729   4.87622   4.95838   4.96215   4.99388
 Alpha virt. eigenvalues --    5.11887   5.24294   5.30963   5.50047   5.77221
 Alpha virt. eigenvalues --    6.01693   7.95413   7.99291   8.03342  17.49502
 Alpha virt. eigenvalues --   17.54517  17.59051  17.65050  17.68313  17.82413
 Alpha virt. eigenvalues --   17.84453  17.87148  17.91226  23.83857  23.89762
 Alpha virt. eigenvalues --   23.98918  24.08327  24.18265  24.20502  24.27775
 Alpha virt. eigenvalues --   24.31055  24.31771  24.35975  24.39087  24.43968
 Alpha virt. eigenvalues --   24.44648  24.48998  24.51086  24.56599  24.57731
 Alpha virt. eigenvalues --   24.85842  35.96806  36.07565  36.09290  36.33344
 Alpha virt. eigenvalues --   50.47755  50.64331 190.03670 190.08820 190.13123
          Condensed to atoms (all electrons):
               1          2          3          4          5          6
     1  N    6.617774   0.330728  -0.047669   0.002915   0.000467   0.003848
     2  C    0.330728   4.817186   0.488170  -0.051841  -0.034030  -0.042411
     3  C   -0.047669   0.488170   4.891126   0.553906  -0.076005  -0.031335
     4  C    0.002915  -0.051841   0.553906   4.792197   0.523295  -0.062866
     5  C    0.000467  -0.034030  -0.076005   0.523295   4.861183   0.538036
     6  C    0.003848  -0.042411  -0.031335  -0.062866   0.538036   4.781753
     7  C   -0.043874   0.476737  -0.055311  -0.032429  -0.077223   0.538344
     8  C    0.002567  -0.000115   0.000002   0.000000   0.000000  -0.000006
     9  C    0.004764  -0.000328  -0.000015   0.000000   0.000000   0.000001
    10  C   -0.019837   0.005502  -0.000574   0.000000   0.000001  -0.000005
    11  N   -0.003345  -0.000206  -0.000061   0.000000   0.000000   0.000000
    12  S   -0.000349   0.000079  -0.000007   0.000000   0.000000   0.000000
    13  N   -0.000114   0.000002   0.000000   0.000000   0.000000   0.000000
    14  C    0.325201  -0.072058   0.007313  -0.000230   0.000023   0.000298
    15  S   -0.043285  -0.001844   0.000038   0.000049  -0.000167   0.001573
    16  O    0.000000   0.000000   0.000000   0.000000   0.000000   0.000000
    17  C    0.000000   0.000000   0.000000   0.000000   0.000000   0.000000
    18  C    0.000000   0.000000   0.000000   0.000000   0.000000   0.000000
    19  C    0.000000   0.000000   0.000000   0.000000   0.000000   0.000000
    20  N    0.000000   0.000000   0.000000   0.000000   0.000000   0.000000
    21  C    0.000000   0.000000   0.000000   0.000000   0.000000   0.000000
    22  C    0.000000   0.000000   0.000000   0.000000   0.000000   0.000000
    23  C    0.000000   0.000000   0.000000   0.000000   0.000000   0.000000
    24  C    0.000000   0.000000   0.000000   0.000000   0.000000   0.000000
    25  C   -0.000071  -0.000004   0.000000   0.000000   0.000000   0.000000
    26  S    0.000000   0.000010   0.000000   0.000000   0.000000   0.000000
    27  O    0.000000   0.000000   0.000000   0.000000   0.000000   0.000000
    28  H    0.393553  -0.038973  -0.001877   0.000408   0.000007  -0.000244
    29  H   -0.004762  -0.055867   0.417360  -0.019278   0.006605  -0.000624
    30  H   -0.000164   0.007772  -0.037582   0.421700  -0.038183   0.006545
    31  H    0.000010  -0.000957   0.007632  -0.040397   0.424009  -0.039093
    32  H   -0.000162   0.007292  -0.000343   0.006534  -0.037872   0.421228
    33  H   -0.005368  -0.052069   0.003791  -0.000570   0.006154  -0.014832
    34  H    0.000000   0.000000   0.000000   0.000000   0.000000   0.000000
    35  H    0.000000   0.000000   0.000000   0.000000   0.000000   0.000000
    36  H    0.000000   0.000000   0.000000   0.000000   0.000000   0.000000
    37  H    0.000000   0.000000   0.000000   0.000000   0.000000   0.000000
               7          8          9         10         11         12
     1  N   -0.043874   0.002567   0.004764  -0.019837  -0.003345  -0.000349
     2  C    0.476737  -0.000115  -0.000328   0.005502  -0.000206   0.000079
     3  C   -0.055311   0.000002  -0.000015  -0.000574  -0.000061  -0.000007
     4  C   -0.032429   0.000000   0.000000   0.000000   0.000000   0.000000
     5  C   -0.077223   0.000000   0.000000   0.000001   0.000000   0.000000
     6  C    0.538344  -0.000006   0.000001  -0.000005   0.000000   0.000000
     7  C    4.927031   0.000351   0.000010   0.000800  -0.000005  -0.000001
     8  C    0.000351   5.775757   0.296600  -0.050622   0.014818   0.014403
     9  C    0.000010   0.296600   4.913131   0.398282  -0.130491  -0.157836
    10  C    0.000800  -0.050622   0.398282   5.152809   0.496399  -0.185473
    11  N   -0.000005   0.014818  -0.130491   0.496399   6.933128   0.335481
    12  S   -0.000001   0.014403  -0.157836  -0.185473   0.335481  15.051563
    13  N    0.000000  -0.088540   0.527077  -0.138980  -0.059633   0.322562
    14  C    0.002931  -0.096728  -0.037556   0.284312  -0.077063   0.013818
    15  S   -0.007050   0.278955  -0.082984  -0.097846   0.005219   0.001485
    16  O    0.000000   0.000000   0.000000   0.000000   0.000000   0.000000
    17  C    0.000000   0.000000   0.000000   0.000000   0.000000   0.000000
    18  C    0.000000   0.000004   0.000000   0.000000   0.000000   0.000000
    19  C    0.000000  -0.000001   0.000000   0.000000   0.000000   0.000000
    20  N    0.000000   0.000000   0.000000   0.000000   0.000000   0.000000
    21  C    0.000000  -0.000627   0.000001   0.000000   0.000000   0.000000
    22  C    0.000000   0.001482  -0.000303   0.000013   0.000000  -0.000001
    23  C    0.000000   0.012225  -0.000142  -0.000036   0.000000   0.000003
    24  C    0.000000  -0.048435  -0.017574   0.000226  -0.000005   0.000192
    25  C    0.000005   0.332376   0.003889   0.016714  -0.000399  -0.002069
    26  S   -0.000067  -0.077686   0.005444  -0.000088  -0.000007   0.000070
    27  O    0.000000   0.000000   0.000000   0.000000   0.000000   0.000000
    28  H    0.003547  -0.000251   0.002732  -0.008765   0.014209  -0.000718
    29  H    0.005848  -0.000001  -0.000006  -0.000058  -0.000094   0.000000
    30  H   -0.000649   0.000000   0.000000   0.000000   0.000000   0.000000
    31  H    0.008129   0.000000   0.000000   0.000000   0.000000   0.000000
    32  H   -0.035627   0.000000   0.000000  -0.000001   0.000000   0.000000
    33  H    0.404492  -0.000877  -0.000163   0.000504  -0.000004   0.000000
    34  H    0.000000   0.000000   0.000000   0.000000   0.000000   0.000000
    35  H    0.000000   0.000012   0.000001   0.000000   0.000000   0.000000
    36  H    0.000000  -0.000058  -0.000024  -0.000001   0.000000  -0.000001
    37  H    0.000000  -0.020822   0.005011   0.001526   0.000047  -0.000128
              13         14         15         16         17         18
     1  N   -0.000114   0.325201  -0.043285   0.000000   0.000000   0.000000
     2  C    0.000002  -0.072058  -0.001844   0.000000   0.000000   0.000000
     3  C    0.000000   0.007313   0.000038   0.000000   0.000000   0.000000
     4  C    0.000000  -0.000230   0.000049   0.000000   0.000000   0.000000
     5  C    0.000000   0.000023  -0.000167   0.000000   0.000000   0.000000
     6  C    0.000000   0.000298   0.001573   0.000000   0.000000   0.000000
     7  C    0.000000   0.002931  -0.007050   0.000000   0.000000   0.000000
     8  C   -0.088540  -0.096728   0.278955   0.000000   0.000000   0.000004
     9  C    0.527077  -0.037556  -0.082984   0.000000   0.000000   0.000000
    10  C   -0.138980   0.284312  -0.097846   0.000000   0.000000   0.000000
    11  N   -0.059633  -0.077063   0.005219   0.000000   0.000000   0.000000
    12  S    0.322562   0.013818   0.001485   0.000000   0.000000   0.000000
    13  N    6.967068   0.016436   0.007019   0.000000   0.000000   0.000000
    14  C    0.016436   5.260824   0.350583   0.000000   0.000000   0.000000
    15  S    0.007019   0.350583  15.211787   0.000000   0.000000   0.000002
    16  O    0.000000   0.000000   0.000000   7.824220   0.383045  -0.095501
    17  C    0.000000   0.000000   0.000000   0.383045   4.308720   0.178243
    18  C    0.000000   0.000000   0.000002  -0.095501   0.178243   5.993001
    19  C    0.000000   0.000000   0.000000  -0.020942  -0.061151   0.100464
    20  N    0.000000   0.000000   0.000000  -0.002134  -0.001619  -0.124389
    21  C    0.000000   0.000000   0.000131   0.009206  -0.013237   0.450457
    22  C   -0.000002  -0.000012  -0.002575  -0.000027   0.012323  -0.097676
    23  C   -0.000123   0.000011  -0.000038   0.000010   0.000144  -0.017383
    24  C   -0.007315  -0.000029   0.005290   0.000000  -0.000008   0.000195
    25  C   -0.005179  -0.000549  -0.078824   0.000000   0.000009  -0.000274
    26  S   -0.000081  -0.001569   0.013467  -0.000011  -0.000419   0.008925
    27  O    0.000000   0.000000   0.000000  -0.070885   0.696427  -0.139009
    28  H    0.000051  -0.045638   0.002131   0.000000   0.000000   0.000000
    29  H    0.000000   0.000247  -0.000102   0.000000   0.000000   0.000000
    30  H    0.000000   0.000011   0.000000   0.000000   0.000000   0.000000
    31  H    0.000000  -0.000001   0.000003   0.000000   0.000000   0.000000
    32  H    0.000000  -0.000010  -0.000037   0.000000   0.000000   0.000000
    33  H    0.000001   0.000790   0.004461   0.000000   0.000000   0.000000
    34  H    0.000000   0.000000   0.000000   0.320984  -0.030368   0.004332
    35  H    0.000000   0.000000  -0.000012   0.001322  -0.010975  -0.040352
    36  H   -0.000023   0.000000  -0.000003   0.000003   0.000114   0.004093
    37  H    0.013909  -0.000095  -0.000526   0.000000   0.000000  -0.000002
              19         20         21         22         23         24
     1  N    0.000000   0.000000   0.000000   0.000000   0.000000   0.000000
     2  C    0.000000   0.000000   0.000000   0.000000   0.000000   0.000000
     3  C    0.000000   0.000000   0.000000   0.000000   0.000000   0.000000
     4  C    0.000000   0.000000   0.000000   0.000000   0.000000   0.000000
     5  C    0.000000   0.000000   0.000000   0.000000   0.000000   0.000000
     6  C    0.000000   0.000000   0.000000   0.000000   0.000000   0.000000
     7  C    0.000000   0.000000   0.000000   0.000000   0.000000   0.000000
     8  C   -0.000001   0.000000  -0.000627   0.001482   0.012225  -0.048435
     9  C    0.000000   0.000000   0.000001  -0.000303  -0.000142  -0.017574
    10  C    0.000000   0.000000   0.000000   0.000013  -0.000036   0.000226
    11  N    0.000000   0.000000   0.000000   0.000000   0.000000  -0.000005
    12  S    0.000000   0.000000   0.000000  -0.000001   0.000003   0.000192
    13  N    0.000000   0.000000   0.000000  -0.000002  -0.000123  -0.007315
    14  C    0.000000   0.000000   0.000000  -0.000012   0.000011  -0.000029
    15  S    0.000000   0.000000   0.000131  -0.002575  -0.000038   0.005290
    16  O   -0.020942  -0.002134   0.009206  -0.000027   0.000010   0.000000
    17  C   -0.061151  -0.001619  -0.013237   0.012323   0.000144  -0.000008
    18  C    0.100464  -0.124389   0.450457  -0.097676  -0.017383   0.000195
    19  C    5.010561   1.053071  -0.076117  -0.026850  -0.007158  -0.000286
    20  N    1.053071   6.354718   0.002077  -0.001638  -0.003398  -0.000026
    21  C   -0.076117   0.002077   4.829015   0.370308  -0.025074   0.008346
    22  C   -0.026850  -0.001638   0.370308   5.602199   0.415756  -0.067953
    23  C   -0.007158  -0.003398  -0.025074   0.415756   4.807136   0.565227
    24  C   -0.000286  -0.000026   0.008346  -0.067953   0.565227   4.860403
    25  C   -0.000060  -0.000005  -0.004462  -0.111542  -0.041792   0.410826
    26  S   -0.000349  -0.000023  -0.041856   0.272393  -0.100157  -0.077079
    27  O    0.003031  -0.000013   0.012254   0.003635   0.000006   0.000000
    28  H    0.000000   0.000000   0.000000   0.000000   0.000000   0.000000
    29  H    0.000000   0.000000   0.000000   0.000000   0.000000   0.000000
    30  H    0.000000   0.000000   0.000000   0.000000   0.000000   0.000000
    31  H    0.000000   0.000000   0.000000   0.000000   0.000000   0.000000
    32  H    0.000000   0.000000   0.000000   0.000000   0.000000   0.000000
    33  H    0.000000   0.000000   0.000000   0.000000   0.000000   0.000001
    34  H    0.007750   0.003169  -0.000655  -0.000046   0.000003   0.000000
    35  H    0.007392   0.000015   0.406268  -0.029620   0.006068  -0.000515
    36  H    0.003791   0.006393  -0.008577  -0.044042   0.421934  -0.032442
    37  H   -0.000014  -0.000008   0.000024   0.009708  -0.039089   0.429165
              25         26         27         28         29         30
     1  N   -0.000071   0.000000   0.000000   0.393553  -0.004762  -0.000164
     2  C   -0.000004   0.000010   0.000000  -0.038973  -0.055867   0.007772
     3  C    0.000000   0.000000   0.000000  -0.001877   0.417360  -0.037582
     4  C    0.000000   0.000000   0.000000   0.000408  -0.019278   0.421700
     5  C    0.000000   0.000000   0.000000   0.000007   0.006605  -0.038183
     6  C    0.000000   0.000000   0.000000  -0.000244  -0.000624   0.006545
     7  C    0.000005  -0.000067   0.000000   0.003547   0.005848  -0.000649
     8  C    0.332376  -0.077686   0.000000  -0.000251  -0.000001   0.000000
     9  C    0.003889   0.005444   0.000000   0.002732  -0.000006   0.000000
    10  C    0.016714  -0.000088   0.000000  -0.008765  -0.000058   0.000000
    11  N   -0.000399  -0.000007   0.000000   0.014209  -0.000094   0.000000
    12  S   -0.002069   0.000070   0.000000  -0.000718   0.000000   0.000000
    13  N   -0.005179  -0.000081   0.000000   0.000051   0.000000   0.000000
    14  C   -0.000549  -0.001569   0.000000  -0.045638   0.000247   0.000011
    15  S   -0.078824   0.013467   0.000000   0.002131  -0.000102   0.000000
    16  O    0.000000  -0.000011  -0.070885   0.000000   0.000000   0.000000
    17  C    0.000009  -0.000419   0.696427   0.000000   0.000000   0.000000
    18  C   -0.000274   0.008925  -0.139009   0.000000   0.000000   0.000000
    19  C   -0.000060  -0.000349   0.003031   0.000000   0.000000   0.000000
    20  N   -0.000005  -0.000023  -0.000013   0.000000   0.000000   0.000000
    21  C   -0.004462  -0.041856   0.012254   0.000000   0.000000   0.000000
    22  C   -0.111542   0.272393   0.003635   0.000000   0.000000   0.000000
    23  C   -0.041792  -0.100157   0.000006   0.000000   0.000000   0.000000
    24  C    0.410826  -0.077079   0.000000   0.000000   0.000000   0.000000
    25  C    5.338247   0.340705   0.000000   0.000021   0.000000   0.000000
    26  S    0.340705  15.354424  -0.000728  -0.000006   0.000000   0.000000
    27  O    0.000000  -0.000728   7.840650   0.000000   0.000000   0.000000
    28  H    0.000021  -0.000006   0.000000   0.412265   0.003788  -0.000051
    29  H    0.000000   0.000000   0.000000   0.003788   0.545796  -0.007318
    30  H    0.000000   0.000000   0.000000  -0.000051  -0.007318   0.540047
    31  H    0.000000   0.000000   0.000000  -0.000002  -0.000222  -0.006314
    32  H    0.000000  -0.000001   0.000000   0.000019   0.000045  -0.000272
    33  H   -0.000083   0.000133   0.000000  -0.000413  -0.000160   0.000044
    34  H    0.000000   0.000013   0.003209   0.000000   0.000000   0.000000
    35  H    0.000151  -0.004589   0.030084   0.000000   0.000000   0.000000
    36  H    0.009415   0.005361   0.000000   0.000000   0.000000   0.000000
    37  H   -0.037079   0.005585   0.000000   0.000000   0.000000   0.000000
              31         32         33         34         35         36
     1  N    0.000010  -0.000162  -0.005368   0.000000   0.000000   0.000000
     2  C   -0.000957   0.007292  -0.052069   0.000000   0.000000   0.000000
     3  C    0.007632  -0.000343   0.003791   0.000000   0.000000   0.000000
     4  C   -0.040397   0.006534  -0.000570   0.000000   0.000000   0.000000
     5  C    0.424009  -0.037872   0.006154   0.000000   0.000000   0.000000
     6  C   -0.039093   0.421228  -0.014832   0.000000   0.000000   0.000000
     7  C    0.008129  -0.035627   0.404492   0.000000   0.000000   0.000000
     8  C    0.000000   0.000000  -0.000877   0.000000   0.000012  -0.000058
     9  C    0.000000   0.000000  -0.000163   0.000000   0.000001  -0.000024
    10  C    0.000000  -0.000001   0.000504   0.000000   0.000000  -0.000001
    11  N    0.000000   0.000000  -0.000004   0.000000   0.000000   0.000000
    12  S    0.000000   0.000000   0.000000   0.000000   0.000000  -0.000001
    13  N    0.000000   0.000000   0.000001   0.000000   0.000000  -0.000023
    14  C   -0.000001  -0.000010   0.000790   0.000000   0.000000   0.000000
    15  S    0.000003  -0.000037   0.004461   0.000000  -0.000012  -0.000003
    16  O    0.000000   0.000000   0.000000   0.320984   0.001322   0.000003
    17  C    0.000000   0.000000   0.000000  -0.030368  -0.010975   0.000114
    18  C    0.000000   0.000000   0.000000   0.004332  -0.040352   0.004093
    19  C    0.000000   0.000000   0.000000   0.007750   0.007392   0.003791
    20  N    0.000000   0.000000   0.000000   0.003169   0.000015   0.006393
    21  C    0.000000   0.000000   0.000000  -0.000655   0.406268  -0.008577
    22  C    0.000000   0.000000   0.000000  -0.000046  -0.029620  -0.044042
    23  C    0.000000   0.000000   0.000000   0.000003   0.006068   0.421934
    24  C    0.000000   0.000000   0.000001   0.000000  -0.000515  -0.032442
    25  C    0.000000   0.000000  -0.000083   0.000000   0.000151   0.009415
    26  S    0.000000  -0.000001   0.000133   0.000013  -0.004589   0.005361
    27  O    0.000000   0.000000   0.000000   0.003209   0.030084   0.000000
    28  H   -0.000002   0.000019  -0.000413   0.000000   0.000000   0.000000
    29  H   -0.000222   0.000045  -0.000160   0.000000   0.000000   0.000000
    30  H   -0.006314  -0.000272   0.000044   0.000000   0.000000   0.000000
    31  H    0.540515  -0.006424  -0.000227   0.000000   0.000000   0.000000
    32  H   -0.006424   0.538032  -0.007063   0.000000   0.000000   0.000000
    33  H   -0.000227  -0.007063   0.529690   0.000000   0.000000   0.000000
    34  H    0.000000   0.000000   0.000000   0.428602  -0.000337   0.000010
    35  H    0.000000   0.000000   0.000000  -0.000337   0.492421   0.000077
    36  H    0.000000   0.000000   0.000000   0.000010   0.000077   0.491618
    37  H    0.000000   0.000000   0.000000   0.000000   0.000001  -0.004002
              37
     1  N    0.000000
     2  C    0.000000
     3  C    0.000000
     4  C    0.000000
     5  C    0.000000
     6  C    0.000000
     7  C    0.000000
     8  C   -0.020822
     9  C    0.005011
    10  C    0.001526
    11  N    0.000047
    12  S   -0.000128
    13  N    0.013909
    14  C   -0.000095
    15  S   -0.000526
    16  O    0.000000
    17  C    0.000000
    18  C   -0.000002
    19  C   -0.000014
    20  N   -0.000008
    21  C    0.000024
    22  C    0.009708
    23  C   -0.039089
    24  C    0.429165
    25  C   -0.037079
    26  S    0.005585
    27  O    0.000000
    28  H    0.000000
    29  H    0.000000
    30  H    0.000000
    31  H    0.000000
    32  H    0.000000
    33  H    0.000000
    34  H    0.000000
    35  H    0.000001
    36  H   -0.004002
    37  H    0.502975
 Mulliken charges:
               1
     1  N   -0.512829
     2  C    0.217223
     3  C   -0.118560
     4  C   -0.093394
     5  C   -0.096300
     6  C   -0.100211
     7  C   -0.115988
     8  C   -0.344786
     9  C    0.270478
    10  C    0.145198
    11  N   -0.527988
    12  S    0.606929
    13  N   -0.554135
    14  C    0.068739
    15  S    0.433098
    16  O   -0.349290
    17  C    0.538753
    18  C   -0.225132
    19  C    0.006869
    20  N   -0.286188
    21  C    0.082520
    22  C   -0.305530
    23  C    0.005867
    24  C   -0.028203
    25  C   -0.169966
    26  S    0.298189
    27  O   -0.378661
    28  H    0.264206
    29  H    0.108802
    30  H    0.114412
    31  H    0.113341
    32  H    0.114662
    33  H    0.131769
    34  H    0.263335
    35  H    0.142591
    36  H    0.146364
    37  H    0.133813
 Sum of Mulliken charges =   0.00000
 Mulliken charges with hydrogens summed into heavy atoms:
               1
     1  N   -0.248623
     2  C    0.217223
     3  C   -0.009758
     4  C    0.021019
     5  C    0.017041
     6  C    0.014451
     7  C    0.015781
     8  C   -0.344786
     9  C    0.270478
    10  C    0.145198
    11  N   -0.527988
    12  S    0.606929
    13  N   -0.554135
    14  C    0.068739
    15  S    0.433098
    16  O   -0.085954
    17  C    0.538753
    18  C   -0.225132
    19  C    0.006869
    20  N   -0.286188
    21  C    0.225111
    22  C   -0.305530
    23  C    0.152231
    24  C    0.105609
    25  C   -0.169966
    26  S    0.298189
    27  O   -0.378661
 Electronic spatial extent (au):  <R**2>=          18685.7257
 Charge=              0.0000 electrons
 Dipole moment (field-independent basis, Debye):
    X=            -13.6637    Y=              1.2984    Z=             -0.0163  Tot=             13.7252
 Quadrupole moment (field-independent basis, Debye-Ang):
   XX=           -195.9882   YY=           -177.7171   ZZ=           -180.7739
   XY=             19.6713   XZ=              1.9208   YZ=             -1.1073
 Traceless Quadrupole moment (field-independent basis, Debye-Ang):
   XX=            -11.1618   YY=              7.1093   ZZ=              4.0525
   XY=             19.6713   XZ=              1.9208   YZ=             -1.1073
 Octapole moment (field-independent basis, Debye-Ang**2):
  XXX=           -625.5147  YYY=             24.2334  ZZZ=              0.0184  XYY=           -181.1935
  XXY=             58.3954  XXZ=            -18.2162  XZZ=             27.9898  YZZ=              5.3429
  YYZ=              5.3985  XYZ=              1.0512
 Hexadecapole moment (field-independent basis, Debye-Ang**3):
 XXXX=         -21276.5323 YYYY=          -4588.0381 ZZZZ=           -214.2797 XXXY=           1113.0439
 XXXZ=            170.8565 YYYX=            285.4779 YYYZ=            -20.5760 ZZZX=             -1.1192
 ZZZY=              1.7459 XXYY=          -4794.3397 XXZZ=          -3544.9084 YYZZ=           -877.4151
 XXYZ=              0.2916 YYXZ=            -11.1745 ZZXY=           -113.2404
 N-N= 2.574724113039D+03 E-N=-1.045951966846D+04  KE= 2.250100541667D+03
 1\1\GINC-N046\SP\RBHandHLYP TD-FC\6-311G(d,p)\C18H10N4O2S3\R2652\11-Se
 p-2021\0\\#N bhandhlyp/6-311G(d,p) TD(NStates=10)\\Name\\0,1\N,0,-4.33
 4466,0.091766,-0.012098\C,0,-4.94197,-1.170533,0.004853\C,0,-6.328753,
 -1.213314,-0.218484\C,0,-7.002632,-2.424504,-0.212842\C,0,-6.312191,-3
 .616267,0.013202\C,0,-4.940634,-3.574271,0.240283\C,0,-4.249417,-2.364
 901,0.24074\C,0,-0.474431,0.860577,-0.018027\C,0,-1.218523,2.052229,0.
 003721\C,0,-2.65149,1.845206,0.024011\N,0,-3.38276,2.960053,0.042894\S
 ,0,-2.298314,4.190193,0.04147\N,0,-0.885998,3.353582,0.014083\C,0,-3.0
 36354,0.485715,0.013173\S,0,-1.609346,-0.495226,-0.027785\O,0,8.054517
 ,-1.577076,-0.010016\C,0,6.738194,-1.891467,-0.017132\C,0,5.777462,-0.
 743968,-0.010336\C,0,6.301212,0.571355,0.003465\N,0,6.788499,1.624046,
 0.014797\C,0,4.436397,-1.034883,-0.017817\C,0,3.317712,-0.170759,-0.01
 4335\C,0,3.208502,1.218811,-0.001343\C,0,1.898244,1.693908,-0.001857\C
 ,0,0.932798,0.680079,-0.014568\S,0,1.698955,-0.887135,-0.02769\O,0,6.3
 87007,-3.04296,-0.02836\H,0,-4.973091,0.875945,-0.069114\H,0,-6.870426
 ,-0.290628,-0.400821\H,0,-8.071919,-2.438539,-0.38834\H,0,-6.838887,-4
 .562569,0.01387\H,0,-4.392185,-4.490411,0.425331\H,0,-3.189181,-2.3693
 51,0.446427\H,0,8.185026,-0.618623,-0.00128\H,0,4.237378,-2.103645,-0.
 028132\H,0,4.072089,1.868944,0.008468\H,0,1.626597,2.739637,0.006703\\
 Version=ES64L-G09RevD.01\State=1-A\HF=-2255.5113631\RMSD=4.676e-09\PG=
 C01 [X(C18H10N4O2S3)]\\@


 TERRY FORSTER, PORTLY ATLANTA BRAVES RELIEVER,
 ANNOUNCING THAT HE WAS GOING TO A FAT FARM:
 "A WAIST IS A TERRIBLE THING TO MIND."
 Job cpu time:       0 days  3 hours 27 minutes 27.2 seconds.
 File lengths (MBytes):  RWF=    795 Int=      0 D2E=      0 Chk=    115 Scr=      1
 Normal termination of Gaussian 09 at Sat Sep 11 10:54:18 2021.
