 Entering Gaussian System, Link 0=g16
 Input=ES.com
 Output=ES.out
 Initial command:
 /usr/local/apps/gaussian/g16-b01-avx2//g16/l1.exe "/tmp/r2532.851042.maple/Gau-22073.inp" -scrdir="/tmp/r2532.851042.maple/"
 Entering Link 1 = /usr/local/apps/gaussian/g16-b01-avx2//g16/l1.exe PID=     22074.
  
 Copyright (c) 1988-2017, Gaussian, Inc.  All Rights Reserved.
  
 This is part of the Gaussian(R) 16 program.  It is based on
 the Gaussian(R) 09 system (copyright 2009, Gaussian, Inc.),
 the Gaussian(R) 03 system (copyright 2003, Gaussian, Inc.),
 the Gaussian(R) 98 system (copyright 1998, Gaussian, Inc.),
 the Gaussian(R) 94 system (copyright 1995, Gaussian, Inc.),
 the Gaussian 92(TM) system (copyright 1992, Gaussian, Inc.),
 the Gaussian 90(TM) system (copyright 1990, Gaussian, Inc.),
 the Gaussian 88(TM) system (copyright 1988, Gaussian, Inc.),
 the Gaussian 86(TM) system (copyright 1986, Carnegie Mellon
 University), and the Gaussian 82(TM) system (copyright 1983,
 Carnegie Mellon University). Gaussian is a federally registered
 trademark of Gaussian, Inc.
  
 This software contains proprietary and confidential information,
 including trade secrets, belonging to Gaussian, Inc.
  
 This software is provided under written license and may be
 used, copied, transmitted, or stored only in accord with that
 written license.
  
 The following legend is applicable only to US Government
 contracts under FAR:
  
                    RESTRICTED RIGHTS LEGEND
  
 Use, reproduction and disclosure by the US Government is
 subject to restrictions as set forth in subparagraphs (a)
 and (c) of the Commercial Computer Software - Restricted
 Rights clause in FAR 52.227-19.
  
 Gaussian, Inc.
 340 Quinnipiac St., Bldg. 40, Wallingford CT 06492
  
  
 ---------------------------------------------------------------
 Warning -- This program may not be used in any manner that
 competes with the business of Gaussian, Inc. or will provide
 assistance to any competitor of Gaussian, Inc.  The licensee
 of this program is prohibited from giving any competitor of
 Gaussian, Inc. access to this program.  By using this program,
 the user acknowledges that Gaussian, Inc. is engaged in the
 business of creating and licensing software in the field of
 computational chemistry and represents and warrants to the
 licensee that it is not a competitor of Gaussian, Inc. and that
 it will not use this program in any manner prohibited above.
 ---------------------------------------------------------------
  

 Cite this work as:
 Gaussian 16, Revision B.01,
 M. J. Frisch, G. W. Trucks, H. B. Schlegel, G. E. Scuseria, 
 M. A. Robb, J. R. Cheeseman, G. Scalmani, V. Barone, 
 G. A. Petersson, H. Nakatsuji, X. Li, M. Caricato, A. V. Marenich, 
 J. Bloino, B. G. Janesko, R. Gomperts, B. Mennucci, H. P. Hratchian, 
 J. V. Ortiz, A. F. Izmaylov, J. L. Sonnenberg, D. Williams-Young, 
 F. Ding, F. Lipparini, F. Egidi, J. Goings, B. Peng, A. Petrone, 
 T. Henderson, D. Ranasinghe, V. G. Zakrzewski, J. Gao, N. Rega, 
 G. Zheng, W. Liang, M. Hada, M. Ehara, K. Toyota, R. Fukuda, 
 J. Hasegawa, M. Ishida, T. Nakajima, Y. Honda, O. Kitao, H. Nakai, 
 T. Vreven, K. Throssell, J. A. Montgomery, Jr., J. E. Peralta, 
 F. Ogliaro, M. J. Bearpark, J. J. Heyd, E. N. Brothers, K. N. Kudin, 
 V. N. Staroverov, T. A. Keith, R. Kobayashi, J. Normand, 
 K. Raghavachari, A. P. Rendell, J. C. Burant, S. S. Iyengar, 
 J. Tomasi, M. Cossi, J. M. Millam, M. Klene, C. Adamo, R. Cammi, 
 J. W. Ochterski, R. L. Martin, K. Morokuma, O. Farkas, 
 J. B. Foresman, and D. J. Fox, Gaussian, Inc., Wallingford CT, 2016.
 
 ******************************************
 Gaussian 16:  ES64L-G16RevB.01 20-Dec-2017
                10-Jun-2021 
 ******************************************
 %mem=8gb
 ---------------------------------------
 #N TD(NStates=10) CAM-B3lYP/6-311G(d,p)
 ---------------------------------------
 1/38=1,172=1/1;
 2/12=2,17=6,18=5,40=1/2;
 3/5=4,6=6,7=101,11=9,25=1,30=1,74=-40/1,2,3,8;
 4//1;
 5/5=2,38=5/2;
 8/6=1,10=2,108=10/1;
 9/41=10,42=1,70=2/14;
 6/7=2,8=2,9=2,10=2/1;
 99/5=1,9=1/99;
 ----
 Name
 ----
 Symbolic Z-matrix:
 Charge =  0 Multiplicity = 1
 6                     0.93737  -3.07345  -0.18667 
 6                     2.12287  -2.11525  -0.08166 
 6                     1.67932  -0.8041    0.06845 
 6                     0.24933  -0.78717   0.07773 
 16                   -1.03641   0.36103   0.21552 
 6                    -2.23886  -0.92615   0.05558 
 6                    -3.66345  -0.61872   0.08808 
 6                    -4.16707   0.63979  -0.28462 
 6                    -5.52322   0.91821  -0.26005 
 6                    -6.45364  -0.05647   0.14537 
 7                    -7.82802   0.22115   0.17817 
 6                    -8.3007    1.55297   0.38581 
 6                    -9.2542    2.10972  -0.46577 
 1                    -9.62521   1.52842  -1.30142 
 6                    -9.74567   3.39753  -0.25291 
 6                    -9.267     4.15743   0.81702 
 6                    -8.3043    3.60531   1.67269 
 6                    -7.83674   2.31876   1.46616 
 1                    -7.10302   1.89706   2.14277 
 1                    -7.95078   4.20256   2.50434 
 8                    -9.66831   5.42528   1.11427 
 6                    -10.64223   6.03995   0.28244 
 1                    -10.28531   6.13903  -0.74886 
 1                    -11.58568   5.48251   0.28856 
 1                    -10.80803   7.03089   0.70155 
 1                    -10.48879   3.79437  -0.93121 
 6                    -8.79054  -0.816    -0.01459 
 6                    -8.70689  -1.68172  -1.10535 
 6                    -9.64725  -2.69412  -1.29497 
 6                    -10.70787  -2.83637  -0.39654 
 6                    -10.80507  -1.9603    0.69236 
 6                    -9.85575  -0.97086   0.88449 
 1                    -9.93578  -0.30347   1.73416 
 1                    -11.63103  -2.0851    1.38194 
 8                    -11.68672  -3.78038  -0.48918 
 6                    -11.64573  -4.69413  -1.57594 
 1                    -11.72295  -4.17736  -2.53919 
 1                    -10.73103  -5.29752  -1.55983 
 1                    -12.50803  -5.34631  -1.44855 
 1                    -9.54839  -3.34875  -2.15031 
 1                    -7.89486  -1.56908  -1.81389 
 6                    -5.95718  -1.31887   0.52374 
 6                    -4.60013  -1.58717   0.49474 
 1                    -4.25383  -2.55733   0.83193 
 1                    -6.64587  -2.0827    0.86097 
 1                    -5.87359   1.89365  -0.57133 
 1                    -3.48639   1.40814  -0.63469 
 6                    -1.62549  -2.16105  -0.07841 
 6                    -0.21972  -2.0834   -0.06482 
 1                    -2.19197  -3.07258  -0.2147 
 16                    2.97765   0.32206   0.18497 
 6                     4.16218  -0.98809   0.01242 
 6                     3.51621  -2.21773  -0.11396 
 1                     4.06458  -3.14215  -0.24465 
 6                     5.56705  -0.7373    0.04514 
 16                    6.68086  -2.03652   0.37656 
 6                     8.11724  -1.00735   0.24972 
 6                     7.69972   0.29807  -0.01318 
 6                     6.28361   0.45519  -0.1447 
 6                     5.91829   1.77686  -0.54353 
 6                     7.00203   2.58067  -0.71621 
 16                    8.54275   1.78183  -0.38 
 6                     6.92949   3.99545  -1.12736 
 8                     5.9002    4.58649  -1.35272 
 8                     8.15699   4.5424   -1.22147 
 6                     8.20206   5.92907  -1.60434 
 1                     7.75699   6.06463  -2.59108 
 1                     7.66179   6.53969  -0.87974 
 1                     9.25704   6.19099  -1.61758 
 1                     4.91461   2.13592  -0.71661 
 6                     9.37614  -1.65344   0.3541 
 6                     10.62216  -1.15892   0.65376 
 6                     10.83171   0.14424   1.17759 
 7                     10.99525   1.19398   1.63525 
 6                     11.83447  -2.03674   0.64516 
 8                     11.76302  -3.14754  -0.14686 
 1                     11.0612  -3.0442   -0.79945 
 8                     12.81695  -1.81893   1.29612 
 1                     9.33135  -2.73041   0.20604 
 6                     0.91727  -3.80042  -1.54825 
 1                     0.92417  -3.0863   -2.37401 
 1                     1.78943  -4.45222  -1.6488 
 1                     0.02102  -4.42022  -1.63746 
 6                     0.93018  -4.09326   0.97224 
 1                     0.94722  -3.58743   1.93955 
 1                     0.0336   -4.71732   0.9264 
 1                     1.80217  -4.75016   0.91157 
 
 Stoichiometry    C43H32N2O6S4
 Framework group  C1[X(C43H32N2O6S4)]
 Deg. of freedom   255
 Full point group                 C1      NOp   1
 Largest Abelian subgroup         C1      NOp   1
 Largest concise Abelian subgroup C1      NOp   1
                         Standard orientation:                         
 ---------------------------------------------------------------------
 Center     Atomic      Atomic             Coordinates (Angstroms)
 Number     Number       Type             X           Y           Z
 ---------------------------------------------------------------------
      1          6           0       -0.937367   -3.073447    0.186672
      2          6           0       -2.122867   -2.115248    0.081661
      3          6           0       -1.679316   -0.804099   -0.068452
      4          6           0       -0.249325   -0.787165   -0.077728
      5         16           0        1.036410    0.361025   -0.215518
      6          6           0        2.238860   -0.926149   -0.055578
      7          6           0        3.663445   -0.618716   -0.088081
      8          6           0        4.167072    0.639785    0.284618
      9          6           0        5.523215    0.918205    0.260048
     10          6           0        6.453643   -0.056471   -0.145370
     11          7           0        7.828021    0.221147   -0.178165
     12          6           0        8.300703    1.552970   -0.385806
     13          6           0        9.254197    2.109715    0.465769
     14          1           0        9.625209    1.528423    1.301420
     15          6           0        9.745666    3.397532    0.252908
     16          6           0        9.267005    4.157431   -0.817016
     17          6           0        8.304305    3.605310   -1.672687
     18          6           0        7.836741    2.318757   -1.466163
     19          1           0        7.103023    1.897060   -2.142771
     20          1           0        7.950783    4.202556   -2.504337
     21          8           0        9.668305    5.425275   -1.114274
     22          6           0       10.642233    6.039950   -0.282435
     23          1           0       10.285306    6.139026    0.748855
     24          1           0       11.585682    5.482513   -0.288556
     25          1           0       10.808033    7.030888   -0.701547
     26          1           0       10.488787    3.794368    0.931210
     27          6           0        8.790537   -0.816003    0.014590
     28          6           0        8.706892   -1.681719    1.105345
     29          6           0        9.647255   -2.694117    1.294967
     30          6           0       10.707870   -2.836370    0.396541
     31          6           0       10.805065   -1.960304   -0.692355
     32          6           0        9.855745   -0.970857   -0.884487
     33          1           0        9.935782   -0.303465   -1.734163
     34          1           0       11.631034   -2.085101   -1.381938
     35          8           0       11.686719   -3.780380    0.489179
     36          6           0       11.645727   -4.694126    1.575939
     37          1           0       11.722954   -4.177359    2.539191
     38          1           0       10.731032   -5.297522    1.559834
     39          1           0       12.508032   -5.346312    1.448547
     40          1           0        9.548391   -3.348753    2.150306
     41          1           0        7.894861   -1.569078    1.813892
     42          6           0        5.957184   -1.318867   -0.523743
     43          6           0        4.600126   -1.587169   -0.494737
     44          1           0        4.253834   -2.557328   -0.831925
     45          1           0        6.645870   -2.082701   -0.860973
     46          1           0        5.873589    1.893646    0.571326
     47          1           0        3.486389    1.408137    0.634689
     48          6           0        1.625489   -2.161053    0.078410
     49          6           0        0.219718   -2.083396    0.064821
     50          1           0        2.191968   -3.072577    0.214700
     51         16           0       -2.977646    0.322058   -0.184968
     52          6           0       -4.162184   -0.988087   -0.012416
     53          6           0       -3.516210   -2.217730    0.113955
     54          1           0       -4.064580   -3.142153    0.244654
     55          6           0       -5.567054   -0.737299   -0.045138
     56         16           0       -6.680862   -2.036515   -0.376555
     57          6           0       -8.117241   -1.007346   -0.249715
     58          6           0       -7.699721    0.298072    0.013178
     59          6           0       -6.283611    0.455188    0.144695
     60          6           0       -5.918293    1.776862    0.543528
     61          6           0       -7.002029    2.580666    0.716207
     62         16           0       -8.542754    1.781825    0.380001
     63          6           0       -6.929485    3.995445    1.127359
     64          8           0       -5.900200    4.586493    1.352715
     65          8           0       -8.156994    4.542399    1.221469
     66          6           0       -8.202058    5.929065    1.604344
     67          1           0       -7.756993    6.064628    2.591080
     68          1           0       -7.661788    6.539691    0.879736
     69          1           0       -9.257040    6.190991    1.617581
     70          1           0       -4.914608    2.135918    0.716605
     71          6           0       -9.376140   -1.653440   -0.354095
     72          6           0      -10.622163   -1.158916   -0.653764
     73          6           0      -10.831709    0.144243   -1.177590
     74          7           0      -10.995247    1.193976   -1.635252
     75          6           0      -11.834467   -2.036742   -0.645164
     76          8           0      -11.763023   -3.147544    0.146859
     77          1           0      -11.061204   -3.044195    0.799445
     78          8           0      -12.816952   -1.818928   -1.296115
     79          1           0       -9.331350   -2.730405   -0.206037
     80          6           0       -0.917271   -3.800420    1.548251
     81          1           0       -0.924169   -3.086302    2.374015
     82          1           0       -1.789433   -4.452223    1.648799
     83          1           0       -0.021019   -4.420217    1.637464
     84          6           0       -0.930182   -4.093261   -0.972236
     85          1           0       -0.947217   -3.587426   -1.939546
     86          1           0       -0.033600   -4.717316   -0.926403
     87          1           0       -1.802170   -4.750158   -0.911574
 ---------------------------------------------------------------------
 Rotational constants (GHZ):           0.0816788           0.0106340           0.0095919
 Standard basis: 6-311G(d,p) (5D, 7F)
 There are  1269 symmetry adapted cartesian basis functions of A   symmetry.
 There are  1214 symmetry adapted basis functions of A   symmetry.
  1214 basis functions,  2072 primitive gaussians,  1269 cartesian basis functions
   208 alpha electrons      208 beta electrons
       nuclear repulsion energy      7134.6351005501 Hartrees.
 NAtoms=   87 NActive=   87 NUniq=   87 SFac= 1.00D+00 NAtFMM=   60 NAOKFM=T Big=T
 Integral buffers will be    131072 words long.
 Raffenetti 1 integral format.
 Two-electron integral symmetry is turned on.
 One-electron integrals computed using PRISM.
 NBasis=  1214 RedAO= T EigKep=  1.41D-04  NBF=  1214
 NBsUse=  1214 1.00D-06 EigRej= -1.00D+00 NBFU=  1214
 ExpMin= 7.71D-02 ExpMax= 9.34D+04 ExpMxC= 3.17D+03 IAcc=3 IRadAn=         5 AccDes= 0.00D+00
 Harris functional with IExCor=20419 and IRadAn=       5 diagonalized for initial guess.
 HarFok:  IExCor=20419 AccDes= 0.00D+00 IRadAn=         5 IDoV= 1 UseB2=F ITyADJ=14
 ICtDFT=  3500011 ScaDFX=  1.000000  1.000000  1.000000  1.000000
 FoFCou: FMM=F IPFlag=           0 FMFlag=      100000 FMFlg1=        2001
         NFxFlg=           0 DoJE=T BraDBF=F KetDBF=T FulRan=T
         wScrn=  0.000000 ICntrl=       500 IOpCl=  0 I1Cent=   200000004 NGrid=           0
         NMat0=    1 NMatS0=      1 NMatT0=    0 NMatD0=    1 NMtDS0=    0 NMtDT0=    0
 Petite list used in FoFCou.
 Requested convergence on RMS density matrix=1.00D-08 within 128 cycles.
 Requested convergence on MAX density matrix=1.00D-06.
 Requested convergence on             energy=1.00D-06.
 No special actions if energy rises.
 Integral accuracy reduced to 1.0D-05 until final iterations.
 Initial convergence to 1.0D-05 achieved.  Increase integral accuracy.
 SCF Done:  E(RCAM-B3LYP) =  -3810.86687531     A.U. after   17 cycles
            NFock= 17  Conv=0.75D-08     -V/T= 2.0025
 DoSCS=F DFT=T ScalE2(SS,OS)=  1.000000  1.000000
 ExpMin= 7.71D-02 ExpMax= 9.34D+04 ExpMxC= 3.17D+03 IAcc=3 IRadAn=         5 AccDes= 0.00D+00
 HarFok:  IExCor=  205 AccDes= 0.00D+00 IRadAn=         5 IDoV=-2 UseB2=F ITyADJ=14
 ICtDFT= 12500011 ScaDFX=  1.000000  1.000000  1.000000  1.000000
 GSVD:  LWork=       -5609 too small for GESVD, short by       26270 words or       26270 for optimal perf.
 Range of M.O.s used for correlation:    72  1214
 NBasis=  1214 NAE=   208 NBE=   208 NFC=    71 NFV=     0
 NROrb=   1143 NOA=   137 NOB=   137 NVA=  1006 NVB=  1006

 **** Warning!!: The largest alpha MO coefficient is  0.13059522D+02

 Orbital symmetries:
       Occupied  (A) (A) (A) (A) (A) (A) (A) (A) (A) (A) (A) (A)
                 (A) (A) (A) (A) (A) (A) (A) (A) (A) (A) (A) (A)
                 (A) (A) (A) (A) (A) (A) (A) (A) (A) (A) (A) (A)
                 (A) (A) (A) (A) (A) (A) (A) (A) (A) (A) (A) (A)
                 (A) (A) (A) (A) (A) (A) (A) (A) (A) (A) (A) (A)
                 (A) (A) (A) (A) (A) (A) (A) (A) (A) (A) (A) (A)
                 (A) (A) (A) (A) (A) (A) (A) (A) (A) (A) (A) (A)
                 (A) (A) (A) (A) (A) (A) (A) (A) (A) (A) (A) (A)
                 (A) (A) (A) (A) (A) (A) (A) (A) (A) (A) (A) (A)
                 (A) (A) (A) (A) (A) (A) (A) (A) (A) (A) (A) (A)
                 (A) (A) (A) (A) (A) (A) (A) (A) (A) (A) (A) (A)
                 (A) (A) (A) (A) (A) (A) (A) (A) (A) (A) (A) (A)
                 (A) (A) (A) (A) (A) (A) (A) (A) (A) (A) (A) (A)
                 (A) (A) (A) (A) (A) (A) (A) (A) (A) (A) (A) (A)
                 (A) (A) (A) (A) (A) (A) (A) (A) (A) (A) (A) (A)
                 (A) (A) (A) (A) (A) (A) (A) (A) (A) (A) (A) (A)
                 (A) (A) (A) (A) (A) (A) (A) (A) (A) (A) (A) (A)
                 (A) (A) (A) (A)
       Virtual   (A) (A) (A) (A) (A) (A) (A) (A) (A) (A) (A) (A)
                 (A) (A) (A) (A) (A) (A) (A) (A) (A) (A) (A) (A)
                 (A) (A) (A) (A) (A) (A) (A) (A) (A) (A) (A) (A)
                 (A) (A) (A) (A) (A) (A) (A) (A) (A) (A) (A) (A)
                 (A) (A) (A) (A) (A) (A) (A) (A) (A) (A) (A) (A)
                 (A) (A) (A) (A) (A) (A) (A) (A) (A) (A) (A) (A)
                 (A) (A) (A) (A) (A) (A) (A) (A) (A) (A) (A) (A)
                 (A) (A) (A) (A) (A) (A) (A) (A) (A) (A) (A) (A)
                 (A) (A) (A) (A) (A) (A) (A) (A) (A) (A) (A) (A)
                 (A) (A) (A) (A) (A) (A) (A) (A) (A) (A) (A) (A)
                 (A) (A) (A) (A) (A) (A) (A) (A) (A) (A) (A) (A)
                 (A) (A) (A) (A) (A) (A) (A) (A) (A) (A) (A) (A)
                 (A) (A) (A) (A) (A) (A) (A) (A) (A) (A) (A) (A)
                 (A) (A) (A) (A) (A) (A) (A) (A) (A) (A) (A) (A)
                 (A) (A) (A) (A) (A) (A) (A) (A) (A) (A) (A) (A)
                 (A) (A) (A) (A) (A) (A) (A) (A) (A) (A) (A) (A)
                 (A) (A) (A) (A) (A) (A) (A) (A) (A) (A) (A) (A)
                 (A) (A) (A) (A) (A) (A) (A) (A) (A) (A) (A) (A)
                 (A) (A) (A) (A) (A) (A) (A) (A) (A) (A) (A) (A)
                 (A) (A) (A) (A) (A) (A) (A) (A) (A) (A) (A) (A)
                 (A) (A) (A) (A) (A) (A) (A) (A) (A) (A) (A) (A)
                 (A) (A) (A) (A) (A) (A) (A) (A) (A) (A) (A) (A)
                 (A) (A) (A) (A) (A) (A) (A) (A) (A) (A) (A) (A)
                 (A) (A) (A) (A) (A) (A) (A) (A) (A) (A) (A) (A)
                 (A) (A) (A) (A) (A) (A) (A) (A) (A) (A) (A) (A)
                 (A) (A) (A) (A) (A) (A) (A) (A) (A) (A) (A) (A)
                 (A) (A) (A) (A) (A) (A) (A) (A) (A) (A) (A) (A)
                 (A) (A) (A) (A) (A) (A) (A) (A) (A) (A) (A) (A)
                 (A) (A) (A) (A) (A) (A) (A) (A) (A) (A) (A) (A)
                 (A) (A) (A) (A) (A) (A) (A) (A) (A) (A) (A) (A)
                 (A) (A) (A) (A) (A) (A) (A) (A) (A) (A) (A) (A)
                 (A) (A) (A) (A) (A) (A) (A) (A) (A) (A) (A) (A)
                 (A) (A) (A) (A) (A) (A) (A) (A) (A) (A) (A) (A)
                 (A) (A) (A) (A) (A) (A) (A) (A) (A) (A) (A) (A)
                 (A) (A) (A) (A) (A) (A) (A) (A) (A) (A) (A) (A)
                 (A) (A) (A) (A) (A) (A) (A) (A) (A) (A) (A) (A)
                 (A) (A) (A) (A) (A) (A) (A) (A) (A) (A) (A) (A)
                 (A) (A) (A) (A) (A) (A) (A) (A) (A) (A) (A) (A)
                 (A) (A) (A) (A) (A) (A) (A) (A) (A) (A) (A) (A)
                 (A) (A) (A) (A) (A) (A) (A) (A) (A) (A) (A) (A)
                 (A) (A) (A) (A) (A) (A) (A) (A) (A) (A) (A) (A)
                 (A) (A) (A) (A) (A) (A) (A) (A) (A) (A) (A) (A)
                 (A) (A) (A) (A) (A) (A) (A) (A) (A) (A) (A) (A)
                 (A) (A) (A) (A) (A) (A) (A) (A) (A) (A) (A) (A)
                 (A) (A) (A) (A) (A) (A) (A) (A) (A) (A) (A) (A)
                 (A) (A) (A) (A) (A) (A) (A) (A) (A) (A) (A) (A)
                 (A) (A) (A) (A) (A) (A) (A) (A) (A) (A) (A) (A)
                 (A) (A) (A) (A) (A) (A) (A) (A) (A) (A) (A) (A)
                 (A) (A) (A) (A) (A) (A) (A) (A) (A) (A) (A) (A)
                 (A) (A) (A) (A) (A) (A) (A) (A) (A) (A) (A) (A)
                 (A) (A) (A) (A) (A) (A) (A) (A) (A) (A) (A) (A)
                 (A) (A) (A) (A) (A) (A) (A) (A) (A) (A) (A) (A)
                 (A) (A) (A) (A) (A) (A) (A) (A) (A) (A) (A) (A)
                 (A) (A) (A) (A) (A) (A) (A) (A) (A) (A) (A) (A)
                 (A) (A) (A) (A) (A) (A) (A) (A) (A) (A) (A) (A)
                 (A) (A) (A) (A) (A) (A) (A) (A) (A) (A) (A) (A)
                 (A) (A) (A) (A) (A) (A) (A) (A) (A) (A) (A) (A)
                 (A) (A) (A) (A) (A) (A) (A) (A) (A) (A) (A) (A)
                 (A) (A) (A) (A) (A) (A) (A) (A) (A) (A) (A) (A)
                 (A) (A) (A) (A) (A) (A) (A) (A) (A) (A) (A) (A)
                 (A) (A) (A) (A) (A) (A) (A) (A) (A) (A) (A) (A)
                 (A) (A) (A) (A) (A) (A) (A) (A) (A) (A) (A) (A)
                 (A) (A) (A) (A) (A) (A) (A) (A) (A) (A) (A) (A)
                 (A) (A) (A) (A) (A) (A) (A) (A) (A) (A) (A) (A)
                 (A) (A) (A) (A) (A) (A) (A) (A) (A) (A) (A) (A)
                 (A) (A) (A) (A) (A) (A) (A) (A) (A) (A) (A) (A)
                 (A) (A) (A) (A) (A) (A) (A) (A) (A) (A) (A) (A)
                 (A) (A) (A) (A) (A) (A) (A) (A) (A) (A) (A) (A)
                 (A) (A) (A) (A) (A) (A) (A) (A) (A) (A) (A) (A)
                 (A) (A) (A) (A) (A) (A) (A) (A) (A) (A) (A) (A)
                 (A) (A) (A) (A) (A) (A) (A) (A) (A) (A) (A) (A)
                 (A) (A) (A) (A) (A) (A) (A) (A) (A) (A) (A) (A)
                 (A) (A) (A) (A) (A) (A) (A) (A) (A) (A) (A) (A)
                 (A) (A) (A) (A) (A) (A) (A) (A) (A) (A) (A) (A)
                 (A) (A) (A) (A) (A) (A) (A) (A) (A) (A) (A) (A)
                 (A) (A) (A) (A) (A) (A) (A) (A) (A) (A) (A) (A)
                 (A) (A) (A) (A) (A) (A) (A) (A) (A) (A) (A) (A)
                 (A) (A) (A) (A) (A) (A) (A) (A) (A) (A) (A) (A)
                 (A) (A) (A) (A) (A) (A) (A) (A) (A) (A) (A) (A)
                 (A) (A) (A) (A) (A) (A) (A) (A) (A) (A) (A) (A)
                 (A) (A) (A) (A) (A) (A) (A) (A) (A) (A) (A) (A)
                 (A) (A) (A) (A) (A) (A) (A) (A) (A) (A) (A) (A)
                 (A) (A) (A) (A) (A) (A) (A) (A) (A) (A) (A) (A)
                 (A) (A) (A) (A) (A) (A) (A) (A) (A) (A)
    40 initial guesses have been made.
 Convergence on wavefunction:    0.001000000000000
 Iteration     1 Dimension    40 NMult     0 NNew     40
 CISAX will form    40 AO SS matrices at one time.
 New state      6 was old state     11
 New state      7 was old state     10
 New state      8 was old state      6
 New state      9 was old state     19
 New state     10 was old state     15
 Iteration     2 Dimension    60 NMult    40 NNew     20
 Iteration     3 Dimension    80 NMult    60 NNew     20
 Iteration     4 Dimension   100 NMult    80 NNew     20
 Iteration     5 Dimension   120 NMult   100 NNew     20
 No map to state     10
 Iteration     6 Dimension   134 NMult   120 NNew     14
 Iteration     7 Dimension   142 NMult   134 NNew      8
 Iteration     8 Dimension   148 NMult   142 NNew      6
 Iteration     9 Dimension   154 NMult   148 NNew      6
 Iteration    10 Dimension   158 NMult   154 NNew      4
 Iteration    11 Dimension   162 NMult   158 NNew      4
 Iteration    12 Dimension   164 NMult   162 NNew      2
 Iteration    13 Dimension   166 NMult   164 NNew      2
 Iteration    14 Dimension   168 NMult   166 NNew      2
 Iteration    15 Dimension   170 NMult   168 NNew      2
 Iteration    16 Dimension   172 NMult   170 NNew      2
 Convergence on energies, max DE= 4.91D-06.
 ***********************************************************************
 Excited states from <AA,BB:AA,BB> singles matrix:
 ***********************************************************************
 
 Ground to excited state transition densities written to RWF  633
 Ground to excited state transition electric dipole moments (Au):
       state          X           Y           Z        Dip. S.      Osc.
         1         5.7168     -0.2326      0.1657     32.7632      1.8484
         2         0.5985      0.1205     -0.2749      0.4483      0.0350
         3        -0.2748      0.7039      0.3882      0.7217      0.0617
         4         1.9502      0.9644      0.2529      4.7973      0.4398
         5         0.2377     -0.2068     -0.0910      0.1075      0.0100
         6        -0.1409     -0.0912      0.4945      0.2727      0.0271
         7        -0.1732     -1.1858     -0.3873      1.5860      0.1613
         8         1.0004      0.1420      0.0031      1.0211      0.1079
         9         0.3755      0.4124      0.1089      0.3229      0.0355
        10         0.1483     -0.3479     -0.1170      0.1567      0.0174
 Ground to excited state transition velocity dipole moments (Au):
       state          X           Y           Z        Dip. S.      Osc.
         1        -0.4752      0.0216     -0.0158      0.2265      1.7843
         2        -0.0691     -0.0160      0.0334      0.0061      0.0349
         3         0.0409     -0.0905     -0.0509      0.0125      0.0647
         4        -0.2651     -0.1366     -0.0371      0.0903      0.4377
         5        -0.0306      0.0275      0.0131      0.0019      0.0089
         6         0.0203      0.0097     -0.0898      0.0086      0.0382
         7         0.0258      0.1726      0.0560      0.0336      0.1468
         8        -0.1612     -0.0216      0.0014      0.0265      0.1112
         9        -0.0616     -0.0622     -0.0224      0.0082      0.0330
        10        -0.0277      0.0570      0.0173      0.0043      0.0172
 Ground to excited state transition magnetic dipole moments (Au):
       state          X           Y           Z
         1         0.0128     -0.2211     -1.3770
         2        -0.1142      0.5662     -0.7380
         3         0.1294     -0.6653      1.1987
         4         0.0120     -0.2863      0.1376
         5         0.0036      0.1713     -0.6168
         6        -0.0405      1.5629      1.1619
         7        -0.0998      0.6527     -1.9692
         8        -0.1264      0.1698     -0.4730
         9        -0.0204     -0.2304     -0.0001
        10        -0.0910      0.8065      0.1392
 Ground to excited state transition velocity quadrupole moments (Au):
       state          XX          YY          ZZ          XY          XZ          YZ
         1         4.3725     -0.0428      0.0227      0.1536      0.4088      0.1307
         2        -7.8594     -0.1032     -0.0625     -0.7927     -0.6857      0.0718
         3         3.9682     -0.4942      0.0183      1.7017      0.9450     -0.1925
         4        -3.3309     -0.7087     -0.0432      0.9790      0.5640     -0.0684
         5         0.8812      0.0496     -0.0038      0.0127     -0.1405     -0.0553
         6         0.2476      0.0742      0.0461      0.2249     -1.4171     -0.0205
         7        -0.2541      0.6282     -0.0096     -2.5215     -0.8269      0.2115
         8        -4.3272     -0.3923     -0.0548     -0.4963     -0.1374      0.2314
         9         1.2265     -0.2642     -0.0024      0.6473      0.3108     -0.0203
        10        -3.8330      0.0441     -0.0531     -0.8960     -1.1035      0.1611
 <0|del|b> * <b|rxdel|0> + <0|del|b> * <b|delr+rdel|0>
 Rotatory Strengths (R) in cgs (10**-40 erg-esu-cm/Gauss)
       state          XX          YY          ZZ    R(velocity)    E-M Angle
         1        23.9772   -183.7940    251.0699     30.4177       89.06
         2      -214.4678     14.3409     44.5097    -51.8724      110.56
         3        -5.6066     63.4752    -33.4549      8.1379       88.35
         4       191.9560    118.7846   -152.3855     52.7851       71.19
         5         1.7192    -16.9206     -2.4263     -5.8759       97.21
         6      -226.0610   -202.1514      2.4057   -141.9356      119.91
         7         9.0343     78.3564    -88.2924     -0.3006       90.03
         8       -17.8232    -37.6542    127.0545     23.8591       79.02
         9        41.1586     36.4988    -10.7281     22.3098       41.76
        10       202.7778     33.8519    -21.0566     71.8577       19.81
 1/2[<0|r|b>*<b|rxdel|0> + (<0|rxdel|b>*<b|r|0>)*]
 Rotatory Strengths (R) in cgs (10**-40 erg-esu-cm/Gauss)
       state          XX          YY          ZZ     R(length)
         1       -51.8741    -36.3655    161.3948     24.3851
         2        48.3259    -48.2550   -143.4611    -47.7968
         3        25.1513    331.1580   -329.0848      9.0749
         4       -16.6151    195.2266    -24.6187     51.3309
         5        -0.6110     25.0475    -39.6915     -5.0850
         6        -4.0360    100.7878   -406.3072   -103.1851
         7       -12.2244    547.3129   -539.2767     -1.3961
         8        89.4338    -17.0499      1.0293     24.4711
         9         5.4271     67.1834      0.0057     24.2054
        10         9.5416    198.4085     11.5158     73.1553
  1/2[<0|del|b>*<b|r|0> + (<0|r|b>*<b|del|0>)*] (Au)
       state          X           Y           Z        Dip. S.   Osc.(frdel)
         1        -2.7164     -0.0050     -0.0026      2.7241      1.8160
         2        -0.0413     -0.0019     -0.0092      0.0524      0.0350
         3        -0.0112     -0.0637     -0.0198      0.0947      0.0631
         4        -0.5169     -0.1317     -0.0094      0.6581      0.4387
         5        -0.0073     -0.0057     -0.0012      0.0142      0.0094
         6        -0.0029     -0.0009     -0.0444      0.0481      0.0321
         7        -0.0045     -0.2047     -0.0217      0.2308      0.1539
         8        -0.1613     -0.0031      0.0000      0.1643      0.1096
         9        -0.0231     -0.0256     -0.0024      0.0512      0.0341
        10        -0.0041     -0.0198     -0.0020      0.0260      0.0173

 Excitation energies and oscillator strengths:
 
 Excited State   1:      Singlet-A      2.3028 eV  538.41 nm  f=1.8484  <S**2>=0.000
     207 -> 209       -0.34883
     208 -> 209        0.58474
 This state for optimization and/or second-order correction.
 Total Energy, E(TD-HF/TD-DFT) =  -3810.78224890    
 Copying the excited state density for this state as the 1-particle RhoCI density.
 
 Excited State   2:      Singlet-A      3.1897 eV  388.70 nm  f=0.0350  <S**2>=0.000
     206 -> 209        0.32475
     207 -> 209        0.49993
     208 -> 209        0.25736
     208 -> 210       -0.17574
     208 -> 211        0.16407
 
 Excited State   3:      Singlet-A      3.4923 eV  355.02 nm  f=0.0617  <S**2>=0.000
     206 -> 210       -0.14014
     206 -> 211       -0.11509
     207 -> 209        0.14818
     207 -> 210       -0.40225
     208 -> 209        0.18242
     208 -> 210        0.47037
 
 Excited State   4:      Singlet-A      3.7422 eV  331.32 nm  f=0.4398  <S**2>=0.000
     206 -> 209       -0.14642
     206 -> 210       -0.14504
     207 -> 210       -0.19129
     207 -> 211       -0.14304
     208 -> 209       -0.12039
     208 -> 211        0.56382
     208 -> 213       -0.11707
 
 Excited State   5:      Singlet-A      3.7869 eV  327.40 nm  f=0.0100  <S**2>=0.000
     203 -> 209        0.12651
     204 -> 209        0.27184
     206 -> 209        0.49177
     207 -> 209       -0.26008
     207 -> 211       -0.14800
     208 -> 209       -0.14736
 
 Excited State   6:      Singlet-A      4.0617 eV  305.25 nm  f=0.0271  <S**2>=0.000
     207 -> 212        0.30933
     208 -> 212        0.58563
 
 Excited State   7:      Singlet-A      4.1510 eV  298.69 nm  f=0.1613  <S**2>=0.000
     202 -> 209        0.37866
     203 -> 209        0.53257
     206 -> 209       -0.11593
     208 -> 210       -0.10208
 
 Excited State   8:      Singlet-A      4.3142 eV  287.38 nm  f=0.1079  <S**2>=0.000
     204 -> 211       -0.10204
     207 -> 210       -0.22289
     207 -> 211        0.43392
     208 -> 209       -0.11283
     208 -> 210       -0.12179
     208 -> 213       -0.35196
     208 -> 214        0.14477
 
 Excited State   9:      Singlet-A      4.4814 eV  276.66 nm  f=0.0355  <S**2>=0.000
     197 -> 209        0.10410
     198 -> 209        0.44319
     199 -> 209       -0.12072
     200 -> 209        0.17954
     202 -> 209       -0.11442
     204 -> 209        0.16608
     206 -> 209       -0.15268
     207 -> 213       -0.17009
     207 -> 214       -0.16302
     208 -> 214        0.19429
 
 Excited State  10:      Singlet-A      4.5428 eV  272.93 nm  f=0.0174  <S**2>=0.000
     196 -> 209        0.10505
     197 -> 209       -0.19926
     206 -> 210        0.25887
     207 -> 210        0.22491
     208 -> 210        0.34248
     208 -> 211        0.14545
     208 -> 213       -0.11163
     208 -> 214        0.18443
     208 -> 216        0.11720
     208 -> 218       -0.11150
 SavETr:  write IOETrn=   770 NScale= 10 NData=  16 NLR=1 NState=   10 LETran=     190.

 **********************************************************************

            Population analysis using the SCF Density.

 **********************************************************************

 Orbital symmetries:
       Occupied  (A) (A) (A) (A) (A) (A) (A) (A) (A) (A) (A) (A)
                 (A) (A) (A) (A) (A) (A) (A) (A) (A) (A) (A) (A)
                 (A) (A) (A) (A) (A) (A) (A) (A) (A) (A) (A) (A)
                 (A) (A) (A) (A) (A) (A) (A) (A) (A) (A) (A) (A)
                 (A) (A) (A) (A) (A) (A) (A) (A) (A) (A) (A) (A)
                 (A) (A) (A) (A) (A) (A) (A) (A) (A) (A) (A) (A)
                 (A) (A) (A) (A) (A) (A) (A) (A) (A) (A) (A) (A)
                 (A) (A) (A) (A) (A) (A) (A) (A) (A) (A) (A) (A)
                 (A) (A) (A) (A) (A) (A) (A) (A) (A) (A) (A) (A)
                 (A) (A) (A) (A) (A) (A) (A) (A) (A) (A) (A) (A)
                 (A) (A) (A) (A) (A) (A) (A) (A) (A) (A) (A) (A)
                 (A) (A) (A) (A) (A) (A) (A) (A) (A) (A) (A) (A)
                 (A) (A) (A) (A) (A) (A) (A) (A) (A) (A) (A) (A)
                 (A) (A) (A) (A) (A) (A) (A) (A) (A) (A) (A) (A)
                 (A) (A) (A) (A) (A) (A) (A) (A) (A) (A) (A) (A)
                 (A) (A) (A) (A) (A) (A) (A) (A) (A) (A) (A) (A)
                 (A) (A) (A) (A) (A) (A) (A) (A) (A) (A) (A) (A)
                 (A) (A) (A) (A)
       Virtual   (A) (A) (A) (A) (A) (A) (A) (A) (A) (A) (A) (A)
                 (A) (A) (A) (A) (A) (A) (A) (A) (A) (A) (A) (A)
                 (A) (A) (A) (A) (A) (A) (A) (A) (A) (A) (A) (A)
                 (A) (A) (A) (A) (A) (A) (A) (A) (A) (A) (A) (A)
                 (A) (A) (A) (A) (A) (A) (A) (A) (A) (A) (A) (A)
                 (A) (A) (A) (A) (A) (A) (A) (A) (A) (A) (A) (A)
                 (A) (A) (A) (A) (A) (A) (A) (A) (A) (A) (A) (A)
                 (A) (A) (A) (A) (A) (A) (A) (A) (A) (A) (A) (A)
                 (A) (A) (A) (A) (A) (A) (A) (A) (A) (A) (A) (A)
                 (A) (A) (A) (A) (A) (A) (A) (A) (A) (A) (A) (A)
                 (A) (A) (A) (A) (A) (A) (A) (A) (A) (A) (A) (A)
                 (A) (A) (A) (A) (A) (A) (A) (A) (A) (A) (A) (A)
                 (A) (A) (A) (A) (A) (A) (A) (A) (A) (A) (A) (A)
                 (A) (A) (A) (A) (A) (A) (A) (A) (A) (A) (A) (A)
                 (A) (A) (A) (A) (A) (A) (A) (A) (A) (A) (A) (A)
                 (A) (A) (A) (A) (A) (A) (A) (A) (A) (A) (A) (A)
                 (A) (A) (A) (A) (A) (A) (A) (A) (A) (A) (A) (A)
                 (A) (A) (A) (A) (A) (A) (A) (A) (A) (A) (A) (A)
                 (A) (A) (A) (A) (A) (A) (A) (A) (A) (A) (A) (A)
                 (A) (A) (A) (A) (A) (A) (A) (A) (A) (A) (A) (A)
                 (A) (A) (A) (A) (A) (A) (A) (A) (A) (A) (A) (A)
                 (A) (A) (A) (A) (A) (A) (A) (A) (A) (A) (A) (A)
                 (A) (A) (A) (A) (A) (A) (A) (A) (A) (A) (A) (A)
                 (A) (A) (A) (A) (A) (A) (A) (A) (A) (A) (A) (A)
                 (A) (A) (A) (A) (A) (A) (A) (A) (A) (A) (A) (A)
                 (A) (A) (A) (A) (A) (A) (A) (A) (A) (A) (A) (A)
                 (A) (A) (A) (A) (A) (A) (A) (A) (A) (A) (A) (A)
                 (A) (A) (A) (A) (A) (A) (A) (A) (A) (A) (A) (A)
                 (A) (A) (A) (A) (A) (A) (A) (A) (A) (A) (A) (A)
                 (A) (A) (A) (A) (A) (A) (A) (A) (A) (A) (A) (A)
                 (A) (A) (A) (A) (A) (A) (A) (A) (A) (A) (A) (A)
                 (A) (A) (A) (A) (A) (A) (A) (A) (A) (A) (A) (A)
                 (A) (A) (A) (A) (A) (A) (A) (A) (A) (A) (A) (A)
                 (A) (A) (A) (A) (A) (A) (A) (A) (A) (A) (A) (A)
                 (A) (A) (A) (A) (A) (A) (A) (A) (A) (A) (A) (A)
                 (A) (A) (A) (A) (A) (A) (A) (A) (A) (A) (A) (A)
                 (A) (A) (A) (A) (A) (A) (A) (A) (A) (A) (A) (A)
                 (A) (A) (A) (A) (A) (A) (A) (A) (A) (A) (A) (A)
                 (A) (A) (A) (A) (A) (A) (A) (A) (A) (A) (A) (A)
                 (A) (A) (A) (A) (A) (A) (A) (A) (A) (A) (A) (A)
                 (A) (A) (A) (A) (A) (A) (A) (A) (A) (A) (A) (A)
                 (A) (A) (A) (A) (A) (A) (A) (A) (A) (A) (A) (A)
                 (A) (A) (A) (A) (A) (A) (A) (A) (A) (A) (A) (A)
                 (A) (A) (A) (A) (A) (A) (A) (A) (A) (A) (A) (A)
                 (A) (A) (A) (A) (A) (A) (A) (A) (A) (A) (A) (A)
                 (A) (A) (A) (A) (A) (A) (A) (A) (A) (A) (A) (A)
                 (A) (A) (A) (A) (A) (A) (A) (A) (A) (A) (A) (A)
                 (A) (A) (A) (A) (A) (A) (A) (A) (A) (A) (A) (A)
                 (A) (A) (A) (A) (A) (A) (A) (A) (A) (A) (A) (A)
                 (A) (A) (A) (A) (A) (A) (A) (A) (A) (A) (A) (A)
                 (A) (A) (A) (A) (A) (A) (A) (A) (A) (A) (A) (A)
                 (A) (A) (A) (A) (A) (A) (A) (A) (A) (A) (A) (A)
                 (A) (A) (A) (A) (A) (A) (A) (A) (A) (A) (A) (A)
                 (A) (A) (A) (A) (A) (A) (A) (A) (A) (A) (A) (A)
                 (A) (A) (A) (A) (A) (A) (A) (A) (A) (A) (A) (A)
                 (A) (A) (A) (A) (A) (A) (A) (A) (A) (A) (A) (A)
                 (A) (A) (A) (A) (A) (A) (A) (A) (A) (A) (A) (A)
                 (A) (A) (A) (A) (A) (A) (A) (A) (A) (A) (A) (A)
                 (A) (A) (A) (A) (A) (A) (A) (A) (A) (A) (A) (A)
                 (A) (A) (A) (A) (A) (A) (A) (A) (A) (A) (A) (A)
                 (A) (A) (A) (A) (A) (A) (A) (A) (A) (A) (A) (A)
                 (A) (A) (A) (A) (A) (A) (A) (A) (A) (A) (A) (A)
                 (A) (A) (A) (A) (A) (A) (A) (A) (A) (A) (A) (A)
                 (A) (A) (A) (A) (A) (A) (A) (A) (A) (A) (A) (A)
                 (A) (A) (A) (A) (A) (A) (A) (A) (A) (A) (A) (A)
                 (A) (A) (A) (A) (A) (A) (A) (A) (A) (A) (A) (A)
                 (A) (A) (A) (A) (A) (A) (A) (A) (A) (A) (A) (A)
                 (A) (A) (A) (A) (A) (A) (A) (A) (A) (A) (A) (A)
                 (A) (A) (A) (A) (A) (A) (A) (A) (A) (A) (A) (A)
                 (A) (A) (A) (A) (A) (A) (A) (A) (A) (A) (A) (A)
                 (A) (A) (A) (A) (A) (A) (A) (A) (A) (A) (A) (A)
                 (A) (A) (A) (A) (A) (A) (A) (A) (A) (A) (A) (A)
                 (A) (A) (A) (A) (A) (A) (A) (A) (A) (A) (A) (A)
                 (A) (A) (A) (A) (A) (A) (A) (A) (A) (A) (A) (A)
                 (A) (A) (A) (A) (A) (A) (A) (A) (A) (A) (A) (A)
                 (A) (A) (A) (A) (A) (A) (A) (A) (A) (A) (A) (A)
                 (A) (A) (A) (A) (A) (A) (A) (A) (A) (A) (A) (A)
                 (A) (A) (A) (A) (A) (A) (A) (A) (A) (A) (A) (A)
                 (A) (A) (A) (A) (A) (A) (A) (A) (A) (A) (A) (A)
                 (A) (A) (A) (A) (A) (A) (A) (A) (A) (A) (A) (A)
                 (A) (A) (A) (A) (A) (A) (A) (A) (A) (A) (A) (A)
                 (A) (A) (A) (A) (A) (A) (A) (A) (A) (A) (A) (A)
                 (A) (A) (A) (A) (A) (A) (A) (A) (A) (A) (A) (A)
                 (A) (A) (A) (A) (A) (A) (A) (A) (A) (A)
 The electronic state is 1-A.
 Alpha  occ. eigenvalues --  -88.97760 -88.97394 -88.96232 -88.96178 -19.24783
 Alpha  occ. eigenvalues --  -19.24015 -19.22869 -19.22726 -19.18766 -19.17849
 Alpha  occ. eigenvalues --  -14.41967 -14.38089 -10.39200 -10.38825 -10.33295
 Alpha  occ. eigenvalues --  -10.31681 -10.31616 -10.31557 -10.31510 -10.31326
 Alpha  occ. eigenvalues --  -10.31158 -10.30886 -10.30664 -10.30490 -10.30484
 Alpha  occ. eigenvalues --  -10.30399 -10.30251 -10.30213 -10.30036 -10.29497
 Alpha  occ. eigenvalues --  -10.29437 -10.29111 -10.29018 -10.28909 -10.28228
 Alpha  occ. eigenvalues --  -10.28118 -10.28031 -10.27126 -10.26896 -10.26857
 Alpha  occ. eigenvalues --  -10.26333 -10.26027 -10.25984 -10.25893 -10.25733
 Alpha  occ. eigenvalues --  -10.25728 -10.25696 -10.25689 -10.25531 -10.25447
 Alpha  occ. eigenvalues --  -10.25410 -10.25248 -10.25248 -10.25191 -10.25164
 Alpha  occ. eigenvalues --   -8.06652  -8.06250  -8.05063  -8.05045  -6.03071
 Alpha  occ. eigenvalues --   -6.02660  -6.02658  -6.02283  -6.02271  -6.01880
 Alpha  occ. eigenvalues --   -6.01507  -6.01455  -6.01090  -6.01065  -6.00679
 Alpha  occ. eigenvalues --   -6.00633  -1.20103  -1.18945  -1.15732  -1.15592
 Alpha  occ. eigenvalues --   -1.11097  -1.10800  -1.05777  -1.02691  -1.01733
 Alpha  occ. eigenvalues --   -0.98991  -0.98252  -0.96137  -0.95498  -0.95192
 Alpha  occ. eigenvalues --   -0.93861  -0.93003  -0.92040  -0.88540  -0.87136
 Alpha  occ. eigenvalues --   -0.85744  -0.85670  -0.85204  -0.84428  -0.84354
 Alpha  occ. eigenvalues --   -0.84081  -0.83748  -0.82802  -0.82575  -0.81905
 Alpha  occ. eigenvalues --   -0.80924  -0.79084  -0.79016  -0.78756  -0.77237
 Alpha  occ. eigenvalues --   -0.74809  -0.72781  -0.71576  -0.71450  -0.70734
 Alpha  occ. eigenvalues --   -0.70505  -0.70082  -0.69798  -0.68487  -0.67995
 Alpha  occ. eigenvalues --   -0.66326  -0.65628  -0.64515  -0.64321  -0.63604
 Alpha  occ. eigenvalues --   -0.63255  -0.62693  -0.62487  -0.62285  -0.61294
 Alpha  occ. eigenvalues --   -0.60520  -0.59479  -0.58864  -0.57612  -0.57373
 Alpha  occ. eigenvalues --   -0.56840  -0.56761  -0.56194  -0.55941  -0.55164
 Alpha  occ. eigenvalues --   -0.55057  -0.54999  -0.54499  -0.54100  -0.53508
 Alpha  occ. eigenvalues --   -0.53091  -0.52887  -0.52762  -0.52575  -0.52338
 Alpha  occ. eigenvalues --   -0.51846  -0.51428  -0.51380  -0.50719  -0.50605
 Alpha  occ. eigenvalues --   -0.50440  -0.50260  -0.50084  -0.49881  -0.49340
 Alpha  occ. eigenvalues --   -0.49318  -0.48712  -0.48561  -0.48176  -0.47987
 Alpha  occ. eigenvalues --   -0.47762  -0.47238  -0.46976  -0.46623  -0.46447
 Alpha  occ. eigenvalues --   -0.46205  -0.46102  -0.45952  -0.45459  -0.45230
 Alpha  occ. eigenvalues --   -0.44870  -0.44381  -0.44152  -0.43972  -0.43801
 Alpha  occ. eigenvalues --   -0.43487  -0.43098  -0.43065  -0.42843  -0.42231
 Alpha  occ. eigenvalues --   -0.41765  -0.41504  -0.41067  -0.40952  -0.40334
 Alpha  occ. eigenvalues --   -0.40257  -0.40204  -0.40022  -0.39826  -0.39341
 Alpha  occ. eigenvalues --   -0.39039  -0.38108  -0.37561  -0.35885  -0.35195
 Alpha  occ. eigenvalues --   -0.34785  -0.33657  -0.33289  -0.32910  -0.32297
 Alpha  occ. eigenvalues --   -0.32205  -0.31979  -0.31902  -0.30989  -0.29382
 Alpha  occ. eigenvalues --   -0.28174  -0.24868  -0.22642
 Alpha virt. eigenvalues --   -0.08269  -0.03819  -0.02018   0.01017   0.01513
 Alpha virt. eigenvalues --    0.02365   0.02904   0.03132   0.03359   0.03479
 Alpha virt. eigenvalues --    0.04118   0.05395   0.05577   0.06466   0.06499
 Alpha virt. eigenvalues --    0.07110   0.07356   0.07516   0.07844   0.08059
 Alpha virt. eigenvalues --    0.08296   0.08731   0.09020   0.09408   0.09606
 Alpha virt. eigenvalues --    0.09700   0.09954   0.10807   0.10907   0.11167
 Alpha virt. eigenvalues --    0.11327   0.11497   0.11718   0.11960   0.12303
 Alpha virt. eigenvalues --    0.12434   0.12875   0.13126   0.13805   0.13841
 Alpha virt. eigenvalues --    0.14240   0.14330   0.14639   0.14690   0.14852
 Alpha virt. eigenvalues --    0.15003   0.15321   0.15460   0.15917   0.16094
 Alpha virt. eigenvalues --    0.16169   0.16287   0.16578   0.17008   0.17265
 Alpha virt. eigenvalues --    0.17410   0.17824   0.18210   0.18389   0.18709
 Alpha virt. eigenvalues --    0.18926   0.19185   0.19812   0.19880   0.19975
 Alpha virt. eigenvalues --    0.20469   0.20760   0.20822   0.21588   0.22177
 Alpha virt. eigenvalues --    0.22646   0.22907   0.23309   0.23520   0.24080
 Alpha virt. eigenvalues --    0.24658   0.25569   0.26086   0.26118   0.26273
 Alpha virt. eigenvalues --    0.26539   0.26946   0.27802   0.27975   0.28278
 Alpha virt. eigenvalues --    0.28485   0.29004   0.29179   0.29337   0.30270
 Alpha virt. eigenvalues --    0.30635   0.30799   0.31112   0.31805   0.32456
 Alpha virt. eigenvalues --    0.32887   0.33286   0.33641   0.33951   0.34188
 Alpha virt. eigenvalues --    0.34721   0.35123   0.35222   0.35390   0.35415
 Alpha virt. eigenvalues --    0.35601   0.35925   0.36318   0.36406   0.36553
 Alpha virt. eigenvalues --    0.36653   0.37328   0.37721   0.37842   0.38378
 Alpha virt. eigenvalues --    0.38739   0.39147   0.39611   0.39957   0.40530
 Alpha virt. eigenvalues --    0.40878   0.41282   0.41380   0.41572   0.41788
 Alpha virt. eigenvalues --    0.41961   0.42144   0.42528   0.42690   0.42856
 Alpha virt. eigenvalues --    0.43016   0.43210   0.43395   0.43707   0.43884
 Alpha virt. eigenvalues --    0.43927   0.44431   0.44637   0.45212   0.45350
 Alpha virt. eigenvalues --    0.45637   0.45856   0.45928   0.46209   0.46451
 Alpha virt. eigenvalues --    0.46577   0.46730   0.46884   0.47286   0.47404
 Alpha virt. eigenvalues --    0.47708   0.47999   0.48161   0.48331   0.48557
 Alpha virt. eigenvalues --    0.48783   0.48960   0.49173   0.49415   0.49496
 Alpha virt. eigenvalues --    0.49785   0.50002   0.50237   0.50320   0.50894
 Alpha virt. eigenvalues --    0.51417   0.51533   0.51957   0.52283   0.52597
 Alpha virt. eigenvalues --    0.52666   0.53048   0.53176   0.53254   0.53495
 Alpha virt. eigenvalues --    0.53791   0.54034   0.54416   0.54581   0.54901
 Alpha virt. eigenvalues --    0.55218   0.55551   0.55697   0.56118   0.56341
 Alpha virt. eigenvalues --    0.56405   0.56658   0.57132   0.57355   0.57889
 Alpha virt. eigenvalues --    0.58124   0.58526   0.58774   0.58944   0.59076
 Alpha virt. eigenvalues --    0.59510   0.59618   0.59804   0.60036   0.60613
 Alpha virt. eigenvalues --    0.60817   0.61116   0.61366   0.61611   0.61743
 Alpha virt. eigenvalues --    0.61979   0.62291   0.62524   0.62999   0.63156
 Alpha virt. eigenvalues --    0.63280   0.63491   0.63757   0.63995   0.64288
 Alpha virt. eigenvalues --    0.64445   0.64578   0.64796   0.64899   0.65196
 Alpha virt. eigenvalues --    0.65450   0.65764   0.65930   0.66151   0.66302
 Alpha virt. eigenvalues --    0.66385   0.66534   0.66691   0.66834   0.67099
 Alpha virt. eigenvalues --    0.67261   0.67628   0.67712   0.67895   0.68086
 Alpha virt. eigenvalues --    0.68473   0.68529   0.68900   0.69016   0.69422
 Alpha virt. eigenvalues --    0.69612   0.69890   0.70004   0.70137   0.70788
 Alpha virt. eigenvalues --    0.70907   0.71350   0.71684   0.72198   0.72381
 Alpha virt. eigenvalues --    0.72752   0.73321   0.73450   0.73665   0.73735
 Alpha virt. eigenvalues --    0.74194   0.74679   0.75395   0.75497   0.75912
 Alpha virt. eigenvalues --    0.76320   0.76478   0.76827   0.77030   0.77269
 Alpha virt. eigenvalues --    0.77505   0.78420   0.78990   0.79700   0.79760
 Alpha virt. eigenvalues --    0.79992   0.80047   0.80335   0.81319   0.81515
 Alpha virt. eigenvalues --    0.82131   0.82538   0.83185   0.83279   0.83407
 Alpha virt. eigenvalues --    0.83773   0.83972   0.84327   0.84435   0.84609
 Alpha virt. eigenvalues --    0.85029   0.85047   0.85669   0.85778   0.86194
 Alpha virt. eigenvalues --    0.86315   0.86671   0.87027   0.87455   0.87713
 Alpha virt. eigenvalues --    0.88090   0.88388   0.88485   0.89088   0.89310
 Alpha virt. eigenvalues --    0.89845   0.90068   0.90217   0.90672   0.91014
 Alpha virt. eigenvalues --    0.91084   0.91397   0.92013   0.92638   0.92913
 Alpha virt. eigenvalues --    0.93002   0.93082   0.93375   0.93933   0.94201
 Alpha virt. eigenvalues --    0.94287   0.94526   0.94716   0.95150   0.95356
 Alpha virt. eigenvalues --    0.95633   0.95988   0.96332   0.96751   0.96892
 Alpha virt. eigenvalues --    0.96959   0.97136   0.97486   0.97825   0.98544
 Alpha virt. eigenvalues --    0.99245   0.99444   1.00298   1.00431   1.00691
 Alpha virt. eigenvalues --    1.00978   1.01079   1.01859   1.02020   1.02677
 Alpha virt. eigenvalues --    1.03414   1.03502   1.04075   1.04269   1.04402
 Alpha virt. eigenvalues --    1.04833   1.05223   1.05437   1.06018   1.06185
 Alpha virt. eigenvalues --    1.06700   1.07098   1.07234   1.08241   1.08310
 Alpha virt. eigenvalues --    1.08934   1.09327   1.09592   1.10152   1.10496
 Alpha virt. eigenvalues --    1.11484   1.11717   1.12025   1.12290   1.13064
 Alpha virt. eigenvalues --    1.13441   1.13650   1.13811   1.14147   1.14952
 Alpha virt. eigenvalues --    1.15536   1.15650   1.15864   1.16029   1.16262
 Alpha virt. eigenvalues --    1.16705   1.17199   1.17690   1.18143   1.18641
 Alpha virt. eigenvalues --    1.18859   1.19481   1.19662   1.20150   1.20331
 Alpha virt. eigenvalues --    1.20878   1.21014   1.22087   1.22940   1.23500
 Alpha virt. eigenvalues --    1.23962   1.25105   1.25509   1.25650   1.26574
 Alpha virt. eigenvalues --    1.27282   1.28222   1.28417   1.28723   1.30069
 Alpha virt. eigenvalues --    1.30226   1.30686   1.31005   1.31269   1.31348
 Alpha virt. eigenvalues --    1.31795   1.32938   1.33544   1.34873   1.35253
 Alpha virt. eigenvalues --    1.35923   1.36817   1.38167   1.39219   1.39603
 Alpha virt. eigenvalues --    1.40195   1.41190   1.41675   1.41732   1.42125
 Alpha virt. eigenvalues --    1.42650   1.42740   1.43035   1.43211   1.44484
 Alpha virt. eigenvalues --    1.44510   1.45907   1.45979   1.46149   1.46605
 Alpha virt. eigenvalues --    1.47057   1.48662   1.48767   1.48987   1.49194
 Alpha virt. eigenvalues --    1.49443   1.49642   1.49705   1.49736   1.50203
 Alpha virt. eigenvalues --    1.50280   1.51146   1.51882   1.52099   1.52329
 Alpha virt. eigenvalues --    1.52425   1.52684   1.52936   1.53074   1.53760
 Alpha virt. eigenvalues --    1.54088   1.54291   1.54539   1.54840   1.55292
 Alpha virt. eigenvalues --    1.55461   1.55706   1.55859   1.57080   1.57447
 Alpha virt. eigenvalues --    1.58003   1.58636   1.58726   1.59228   1.59953
 Alpha virt. eigenvalues --    1.60451   1.60710   1.60966   1.61227   1.61376
 Alpha virt. eigenvalues --    1.62270   1.62402   1.62650   1.62935   1.63073
 Alpha virt. eigenvalues --    1.63452   1.63723   1.63908   1.64093   1.64310
 Alpha virt. eigenvalues --    1.64453   1.64688   1.64944   1.65116   1.65427
 Alpha virt. eigenvalues --    1.65564   1.65714   1.65830   1.66085   1.66389
 Alpha virt. eigenvalues --    1.66535   1.66963   1.67337   1.67724   1.67946
 Alpha virt. eigenvalues --    1.68635   1.69827   1.69921   1.70297   1.70893
 Alpha virt. eigenvalues --    1.71188   1.71571   1.71941   1.71947   1.72396
 Alpha virt. eigenvalues --    1.72734   1.72798   1.72911   1.73061   1.73426
 Alpha virt. eigenvalues --    1.73714   1.73931   1.74162   1.74900   1.75343
 Alpha virt. eigenvalues --    1.75485   1.75560   1.76210   1.76448   1.77212
 Alpha virt. eigenvalues --    1.77872   1.78452   1.78852   1.79359   1.79556
 Alpha virt. eigenvalues --    1.79765   1.79995   1.80301   1.80578   1.81001
 Alpha virt. eigenvalues --    1.81091   1.81808   1.81944   1.83126   1.83425
 Alpha virt. eigenvalues --    1.83849   1.83979   1.84059   1.84485   1.84808
 Alpha virt. eigenvalues --    1.85121   1.85140   1.85751   1.87028   1.88111
 Alpha virt. eigenvalues --    1.89255   1.89433   1.90334   1.90926   1.90980
 Alpha virt. eigenvalues --    1.91354   1.91656   1.91744   1.92849   1.93357
 Alpha virt. eigenvalues --    1.93930   1.93973   1.94281   1.95178   1.95576
 Alpha virt. eigenvalues --    1.95983   1.96332   1.96521   1.96720   1.96992
 Alpha virt. eigenvalues --    1.97154   1.97663   1.97879   1.98083   1.98317
 Alpha virt. eigenvalues --    1.98711   1.98860   1.99712   2.00199   2.00467
 Alpha virt. eigenvalues --    2.00809   2.01151   2.02015   2.02245   2.02325
 Alpha virt. eigenvalues --    2.02989   2.03420   2.03627   2.04113   2.04550
 Alpha virt. eigenvalues --    2.05207   2.05925   2.06398   2.06922   2.06958
 Alpha virt. eigenvalues --    2.07195   2.07456   2.07551   2.08058   2.08290
 Alpha virt. eigenvalues --    2.08736   2.08951   2.10069   2.10187   2.10801
 Alpha virt. eigenvalues --    2.11451   2.11994   2.12192   2.12485   2.12640
 Alpha virt. eigenvalues --    2.13433   2.13526   2.13636   2.13915   2.14028
 Alpha virt. eigenvalues --    2.15010   2.15315   2.15484   2.16061   2.16292
 Alpha virt. eigenvalues --    2.16673   2.17184   2.17652   2.17767   2.18360
 Alpha virt. eigenvalues --    2.18644   2.18772   2.18987   2.19621   2.19877
 Alpha virt. eigenvalues --    2.20352   2.22012   2.22934   2.23316   2.24362
 Alpha virt. eigenvalues --    2.24975   2.25218   2.26773   2.26998   2.28508
 Alpha virt. eigenvalues --    2.29436   2.29818   2.30141   2.31531   2.32095
 Alpha virt. eigenvalues --    2.33383   2.33806   2.34248   2.34910   2.35177
 Alpha virt. eigenvalues --    2.36145   2.37298   2.37456   2.37991   2.38456
 Alpha virt. eigenvalues --    2.39008   2.39415   2.40163   2.40243   2.40457
 Alpha virt. eigenvalues --    2.40552   2.41695   2.42471   2.43028   2.43663
 Alpha virt. eigenvalues --    2.44537   2.44954   2.45560   2.46092   2.46246
 Alpha virt. eigenvalues --    2.46702   2.46870   2.47222   2.47310   2.49175
 Alpha virt. eigenvalues --    2.49760   2.50657   2.50842   2.51007   2.51035
 Alpha virt. eigenvalues --    2.52061   2.52859   2.53123   2.54943   2.55499
 Alpha virt. eigenvalues --    2.55651   2.55862   2.56005   2.56417   2.57595
 Alpha virt. eigenvalues --    2.57898   2.57979   2.58499   2.58969   2.59027
 Alpha virt. eigenvalues --    2.59401   2.60235   2.60695   2.61589   2.62035
 Alpha virt. eigenvalues --    2.62763   2.63526   2.64204   2.64430   2.64651
 Alpha virt. eigenvalues --    2.64954   2.65537   2.65960   2.66441   2.66555
 Alpha virt. eigenvalues --    2.67157   2.67338   2.67766   2.68054   2.68301
 Alpha virt. eigenvalues --    2.68860   2.69019   2.69197   2.69663   2.70065
 Alpha virt. eigenvalues --    2.70839   2.71219   2.72212   2.72505   2.72861
 Alpha virt. eigenvalues --    2.73072   2.73359   2.73802   2.73962   2.74777
 Alpha virt. eigenvalues --    2.74807   2.75310   2.75525   2.75555   2.75828
 Alpha virt. eigenvalues --    2.76618   2.76918   2.77303   2.78088   2.78426
 Alpha virt. eigenvalues --    2.78880   2.79329   2.80110   2.80870   2.81913
 Alpha virt. eigenvalues --    2.82607   2.82991   2.83460   2.84778   2.85430
 Alpha virt. eigenvalues --    2.86418   2.86873   2.87160   2.88210   2.88846
 Alpha virt. eigenvalues --    2.89378   2.89661   2.90668   2.91018   2.91148
 Alpha virt. eigenvalues --    2.91473   2.92139   2.92363   2.92503   2.93071
 Alpha virt. eigenvalues --    2.93335   2.93445   2.93656   2.94824   2.95886
 Alpha virt. eigenvalues --    2.96143   2.96247   2.96631   2.97649   2.98425
 Alpha virt. eigenvalues --    2.99113   2.99529   2.99869   2.99914   3.00125
 Alpha virt. eigenvalues --    3.01184   3.01283   3.01832   3.02633   3.03218
 Alpha virt. eigenvalues --    3.03380   3.04393   3.05891   3.06371   3.07093
 Alpha virt. eigenvalues --    3.07500   3.07856   3.08025   3.08509   3.08815
 Alpha virt. eigenvalues --    3.09957   3.10485   3.10835   3.11095   3.11254
 Alpha virt. eigenvalues --    3.12327   3.13527   3.13922   3.14226   3.14688
 Alpha virt. eigenvalues --    3.14913   3.16243   3.17190   3.17541   3.18871
 Alpha virt. eigenvalues --    3.19828   3.21525   3.21906   3.22906   3.23395
 Alpha virt. eigenvalues --    3.24453   3.24916   3.25402   3.26115   3.26229
 Alpha virt. eigenvalues --    3.26655   3.27519   3.28090   3.29867   3.31090
 Alpha virt. eigenvalues --    3.31223   3.31739   3.33060   3.33575   3.34127
 Alpha virt. eigenvalues --    3.36554   3.38064   3.39243   3.40676   3.40710
 Alpha virt. eigenvalues --    3.41506   3.42886   3.42942   3.43037   3.43845
 Alpha virt. eigenvalues --    3.44287   3.44741   3.45417   3.47741   3.48023
 Alpha virt. eigenvalues --    3.48857   3.50037   3.52811   3.53309   3.54311
 Alpha virt. eigenvalues --    3.55347   3.55796   3.56460   3.57383   3.58034
 Alpha virt. eigenvalues --    3.60235   3.60881   3.62392   3.63218   3.64350
 Alpha virt. eigenvalues --    3.65338   3.66491   3.67848   3.68140   3.68774
 Alpha virt. eigenvalues --    3.69069   3.75472   3.76168   3.81646   3.81835
 Alpha virt. eigenvalues --    3.81964   3.82000   3.82818   3.84371   3.84667
 Alpha virt. eigenvalues --    3.85012   3.85197   3.85368   3.86039   3.88658
 Alpha virt. eigenvalues --    3.88853   3.91806   3.93429   3.93916   3.96335
 Alpha virt. eigenvalues --    3.97488   4.00807   4.01854   4.03132   4.03306
 Alpha virt. eigenvalues --    4.04194   4.05729   4.09227   4.10555   4.11251
 Alpha virt. eigenvalues --    4.12755   4.13014   4.17169   4.17540   4.17900
 Alpha virt. eigenvalues --    4.18848   4.19468   4.20364   4.22841   4.23133
 Alpha virt. eigenvalues --    4.24033   4.25187   4.26518   4.30924   4.33107
 Alpha virt. eigenvalues --    4.36866   4.40297   4.55754   4.60715   4.61585
 Alpha virt. eigenvalues --    4.64382   4.74733   4.90607   4.90866   4.91237
 Alpha virt. eigenvalues --    4.91289   4.91370   4.96281   4.96459   4.98624
 Alpha virt. eigenvalues --    4.99153   5.07688   5.11505   5.12409   5.20536
 Alpha virt. eigenvalues --    5.29454   5.33998   5.34740   5.34915   5.60949
 Alpha virt. eigenvalues --    5.68913   5.83612   5.84055   5.84167   5.84864
 Alpha virt. eigenvalues --    7.83549   7.85351   7.87722   7.89971  17.23995
 Alpha virt. eigenvalues --   17.25374  17.27241  17.27999  17.47561  17.50794
 Alpha virt. eigenvalues --   17.51625  17.55192  17.57101  17.57208  17.60801
 Alpha virt. eigenvalues --   17.62360  23.40128  23.49492  23.53735  23.58177
 Alpha virt. eigenvalues --   23.61182  23.65403  23.71161  23.76703  23.80037
 Alpha virt. eigenvalues --   23.84147  23.85456  23.86332  23.88293  23.91463
 Alpha virt. eigenvalues --   23.91646  23.92248  23.93179  23.95219  23.95890
 Alpha virt. eigenvalues --   23.97156  23.97646  23.97711  23.99004  23.99147
 Alpha virt. eigenvalues --   24.03556  24.05663  24.07146  24.07535  24.08493
 Alpha virt. eigenvalues --   24.09548  24.10174  24.10313  24.16672  24.16723
 Alpha virt. eigenvalues --   24.17036  24.17267  24.18011  24.18603  24.19597
 Alpha virt. eigenvalues --   24.23482  24.23629  24.23903  24.50261  35.70217
 Alpha virt. eigenvalues --   35.88952  49.88655  49.91146  49.96095  49.96246
 Alpha virt. eigenvalues --   50.04495  50.05905 188.88368 188.90078 188.92114
 Alpha virt. eigenvalues --  188.94176
          Condensed to atoms (all electrons):
 Mulliken charges:
               1
     1  C   -0.268980
     2  C   -0.002625
     3  C   -0.179953
     4  C   -0.190738
     5  S    0.309486
     6  C   -0.279189
     7  C   -0.014220
     8  C   -0.089656
     9  C   -0.123085
    10  C    0.178768
    11  N   -0.488733
    12  C    0.037962
    13  C   -0.063295
    14  H    0.114236
    15  C   -0.140486
    16  C    0.159178
    17  C   -0.092232
    18  C   -0.058758
    19  H    0.118767
    20  H    0.116926
    21  O   -0.342340
    22  C   -0.148789
    23  H    0.115441
    24  H    0.115383
    25  H    0.136478
    26  H    0.116714
    27  C    0.036915
    28  C   -0.059048
    29  C   -0.140083
    30  C    0.159099
    31  C   -0.094042
    32  C   -0.062637
    33  H    0.116033
    34  H    0.115985
    35  O   -0.342566
    36  C   -0.148346
    37  H    0.115183
    38  H    0.114450
    39  H    0.136448
    40  H    0.116601
    41  H    0.116667
    42  C   -0.117973
    43  C   -0.053192
    44  H    0.101482
    45  H    0.126472
    46  H    0.128409
    47  H    0.113841
    48  C    0.009700
    49  C    0.010282
    50  H    0.104485
    51  S    0.352910
    52  C   -0.249627
    53  C   -0.000758
    54  H    0.116250
    55  C   -0.177804
    56  S    0.343859
    57  C   -0.347880
    58  C   -0.062862
    59  C   -0.013736
    60  C    0.056045
    61  C   -0.380285
    62  S    0.385747
    63  C    0.444181
    64  O   -0.330764
    65  O   -0.330932
    66  C   -0.123953
    67  H    0.129206
    68  H    0.131544
    69  H    0.134747
    70  H    0.144765
    71  C    0.024709
    72  C   -0.197309
    73  C    0.030589
    74  N   -0.182329
    75  C    0.413029
    76  O   -0.301139
    77  H    0.244926
    78  O   -0.277487
    79  H    0.115489
    80  C   -0.222064
    81  H    0.127525
    82  H    0.112669
    83  H    0.115097
    84  C   -0.220754
    85  H    0.128583
    86  H    0.114448
    87  H    0.112941
 Sum of Mulliken charges =  -0.00000
 Mulliken charges with hydrogens summed into heavy atoms:
               1
     1  C   -0.268980
     2  C   -0.002625
     3  C   -0.179953
     4  C   -0.190738
     5  S    0.309486
     6  C   -0.279189
     7  C   -0.014220
     8  C    0.024186
     9  C    0.005324
    10  C    0.178768
    11  N   -0.488733
    12  C    0.037962
    13  C    0.050940
    15  C   -0.023772
    16  C    0.159178
    17  C    0.024694
    18  C    0.060008
    21  O   -0.342340
    22  C    0.218513
    27  C    0.036915
    28  C    0.057619
    29  C   -0.023482
    30  C    0.159099
    31  C    0.021943
    32  C    0.053396
    35  O   -0.342566
    36  C    0.217735
    42  C    0.008499
    43  C    0.048290
    48  C    0.114185
    49  C    0.010282
    51  S    0.352910
    52  C   -0.249627
    53  C    0.115492
    55  C   -0.177804
    56  S    0.343859
    57  C   -0.347880
    58  C   -0.062862
    59  C   -0.013736
    60  C    0.200810
    61  C   -0.380285
    62  S    0.385747
    63  C    0.444181
    64  O   -0.330764
    65  O   -0.330932
    66  C    0.271544
    71  C    0.140197
    72  C   -0.197309
    73  C    0.030589
    74  N   -0.182329
    75  C    0.413029
    76  O   -0.056213
    78  O   -0.277487
    80  C    0.133228
    84  C    0.135218
 Electronic spatial extent (au):  <R**2>=         100527.7745
 Charge=              0.0000 electrons
 Dipole moment (field-independent basis, Debye):
    X=             14.9283    Y=             -3.1180    Z=              5.9883  Tot=             16.3840
 Quadrupole moment (field-independent basis, Debye-Ang):
   XX=           -446.8675   YY=           -302.4950   ZZ=           -349.7961
   XY=             -0.9224   XZ=            -25.7168   YZ=             -2.4362
 Traceless Quadrupole moment (field-independent basis, Debye-Ang):
   XX=            -80.4813   YY=             63.8912   ZZ=             16.5901
   XY=             -0.9224   XZ=            -25.7168   YZ=             -2.4362
 Octapole moment (field-independent basis, Debye-Ang**2):
  XXX=           2988.5865  YYY=            104.1802  ZZZ=             27.2484  XYY=            143.4999
  XXY=            261.1440  XXZ=            806.6552  XZZ=             78.0793  YZZ=             -1.2012
  YYZ=            101.7757  XYZ=            -55.6379
 Hexadecapole moment (field-independent basis, Debye-Ang**3):
 XXXX=        -145674.2621 YYYY=         -13206.1581 ZZZZ=          -1755.1978 XXXY=          -1822.3478
 XXXZ=          -4216.5833 YYYX=           -851.9222 YYYZ=            104.9232 ZZZX=           -144.7791
 ZZZY=             14.1563 XXYY=         -18716.1097 XXZZ=         -20442.8174 YYZZ=          -2702.6973
 XXYZ=           -303.2735 YYXZ=            179.2857 ZZXY=           -251.4463
 N-N= 7.134635100550D+03 E-N=-2.322427248008D+04  KE= 3.801365245997D+03
 1\1\GINC-CN113\SP\RCAM-B3LYP TD-FC\6-311G(d,p)\C43H32N2O6S4\R2532\11-J
 un-2021\0\\#N TD(NStates=10) CAM-B3lYP/6-311G(d,p)\\Name\\0,1\C,0,0.93
 7367,-3.073447,-0.186672\C,0,2.122867,-2.115248,-0.081661\C,0,1.679316
 ,-0.804099,0.068452\C,0,0.249325,-0.787165,0.077728\S,0,-1.03641,0.361
 025,0.215518\C,0,-2.23886,-0.926149,0.055578\C,0,-3.663445,-0.618716,0
 .088081\C,0,-4.167072,0.639785,-0.284618\C,0,-5.523215,0.918205,-0.260
 048\C,0,-6.453643,-0.056471,0.14537\N,0,-7.828021,0.221147,0.178165\C,
 0,-8.300703,1.55297,0.385806\C,0,-9.254197,2.109715,-0.465769\H,0,-9.6
 25209,1.528423,-1.30142\C,0,-9.745666,3.397532,-0.252908\C,0,-9.267005
 ,4.157431,0.817016\C,0,-8.304305,3.60531,1.672687\C,0,-7.836741,2.3187
 57,1.466163\H,0,-7.103023,1.89706,2.142771\H,0,-7.950783,4.202556,2.50
 4337\O,0,-9.668305,5.425275,1.114274\C,0,-10.642233,6.03995,0.282435\H
 ,0,-10.285306,6.139026,-0.748855\H,0,-11.585682,5.482513,0.288556\H,0,
 -10.808033,7.030888,0.701547\H,0,-10.488787,3.794368,-0.93121\C,0,-8.7
 90537,-0.816003,-0.01459\C,0,-8.706892,-1.681719,-1.105345\C,0,-9.6472
 55,-2.694117,-1.294967\C,0,-10.70787,-2.83637,-0.396541\C,0,-10.805065
 ,-1.960304,0.692355\C,0,-9.855745,-0.970857,0.884487\H,0,-9.935782,-0.
 303465,1.734163\H,0,-11.631034,-2.085101,1.381938\O,0,-11.686719,-3.78
 038,-0.489179\C,0,-11.645727,-4.694126,-1.575939\H,0,-11.722954,-4.177
 359,-2.539191\H,0,-10.731032,-5.297522,-1.559834\H,0,-12.508032,-5.346
 312,-1.448547\H,0,-9.548391,-3.348753,-2.150306\H,0,-7.894861,-1.56907
 8,-1.813892\C,0,-5.957184,-1.318867,0.523743\C,0,-4.600126,-1.587169,0
 .494737\H,0,-4.253834,-2.557328,0.831925\H,0,-6.64587,-2.082701,0.8609
 73\H,0,-5.873589,1.893646,-0.571326\H,0,-3.486389,1.408137,-0.634689\C
 ,0,-1.625489,-2.161053,-0.07841\C,0,-0.219718,-2.083396,-0.064821\H,0,
 -2.191968,-3.072577,-0.2147\S,0,2.977646,0.322058,0.184968\C,0,4.16218
 4,-0.988087,0.012416\C,0,3.51621,-2.21773,-0.113955\H,0,4.06458,-3.142
 153,-0.244654\C,0,5.567054,-0.737299,0.045138\S,0,6.680862,-2.036515,0
 .376555\C,0,8.117241,-1.007346,0.249715\C,0,7.699721,0.298072,-0.01317
 8\C,0,6.283611,0.455188,-0.144695\C,0,5.918293,1.776862,-0.543528\C,0,
 7.002029,2.580666,-0.716207\S,0,8.542754,1.781825,-0.380001\C,0,6.9294
 85,3.995445,-1.127359\O,0,5.9002,4.586493,-1.352715\O,0,8.156994,4.542
 399,-1.221469\C,0,8.202058,5.929065,-1.604344\H,0,7.756993,6.064628,-2
 .59108\H,0,7.661788,6.539691,-0.879736\H,0,9.25704,6.190991,-1.617581\
 H,0,4.914608,2.135918,-0.716605\C,0,9.37614,-1.65344,0.354095\C,0,10.6
 22163,-1.158916,0.653764\C,0,10.831709,0.144243,1.17759\N,0,10.995247,
 1.193976,1.635252\C,0,11.834467,-2.036742,0.645164\O,0,11.763023,-3.14
 7544,-0.146859\H,0,11.061204,-3.044195,-0.799445\O,0,12.816952,-1.8189
 28,1.296115\H,0,9.33135,-2.730405,0.206037\C,0,0.917271,-3.80042,-1.54
 8251\H,0,0.924169,-3.086302,-2.374015\H,0,1.789433,-4.452223,-1.648799
 \H,0,0.021019,-4.420217,-1.637464\C,0,0.930182,-4.093261,0.972236\H,0,
 0.947217,-3.587426,1.939546\H,0,0.0336,-4.717316,0.926403\H,0,1.80217,
 -4.750158,0.911574\\Version=ES64L-G16RevB.01\State=1-A\HF=-3810.866875
 3\RMSD=7.526e-09\PG=C01 [X(C43H32N2O6S4)]\\@


 THIS CURIOUS WORLD WHICH WE INHABIT IS MORE WONDERFUL THAN IT IS CONVENIENT;
 MORE BEAUTIFUL THAN IT IS USEFUL;
 IT IS MORE TO BE ADMIRED THAN IT IS TO BE USED.

                                                                 -- THOREAU
 Job cpu time:       0 days  7 hours 17 minutes 58.5 seconds.
 Elapsed time:       0 days  7 hours 18 minutes  1.9 seconds.
 File lengths (MBytes):  RWF=   8911 Int=      0 D2E=      0 Chk=    551 Scr=      1
 Normal termination of Gaussian 16 at Fri Jun 11 06:01:42 2021.
