 Entering Gaussian System, Link 0=g16
 Input=ES.com
 Output=BHandLYP.out
 Initial command:
 /usr/local/apps/gaussian/g16-c01-avx2//g16/l1.exe "/tmp/r2532.917197.maple/Gau-40052.inp" -scrdir="/tmp/r2532.917197.maple/"
 Entering Link 1 = /usr/local/apps/gaussian/g16-c01-avx2//g16/l1.exe PID=     40053.
  
 Copyright (c) 1988-2019, Gaussian, Inc.  All Rights Reserved.
  
 This is part of the Gaussian(R) 16 program.  It is based on
 the Gaussian(R) 09 system (copyright 2009, Gaussian, Inc.),
 the Gaussian(R) 03 system (copyright 2003, Gaussian, Inc.),
 the Gaussian(R) 98 system (copyright 1998, Gaussian, Inc.),
 the Gaussian(R) 94 system (copyright 1995, Gaussian, Inc.),
 the Gaussian 92(TM) system (copyright 1992, Gaussian, Inc.),
 the Gaussian 90(TM) system (copyright 1990, Gaussian, Inc.),
 the Gaussian 88(TM) system (copyright 1988, Gaussian, Inc.),
 the Gaussian 86(TM) system (copyright 1986, Carnegie Mellon
 University), and the Gaussian 82(TM) system (copyright 1983,
 Carnegie Mellon University). Gaussian is a federally registered
 trademark of Gaussian, Inc.
  
 This software contains proprietary and confidential information,
 including trade secrets, belonging to Gaussian, Inc.
  
 This software is provided under written license and may be
 used, copied, transmitted, or stored only in accord with that
 written license.
  
 The following legend is applicable only to US Government
 contracts under FAR:
  
                    RESTRICTED RIGHTS LEGEND
  
 Use, reproduction and disclosure by the US Government is
 subject to restrictions as set forth in subparagraphs (a)
 and (c) of the Commercial Computer Software - Restricted
 Rights clause in FAR 52.227-19.
  
 Gaussian, Inc.
 340 Quinnipiac St., Bldg. 40, Wallingford CT 06492
  
  
 ---------------------------------------------------------------
 Warning -- This program may not be used in any manner that
 competes with the business of Gaussian, Inc. or will provide
 assistance to any competitor of Gaussian, Inc.  The licensee
 of this program is prohibited from giving any competitor of
 Gaussian, Inc. access to this program.  By using this program,
 the user acknowledges that Gaussian, Inc. is engaged in the
 business of creating and licensing software in the field of
 computational chemistry and represents and warrants to the
 licensee that it is not a competitor of Gaussian, Inc. and that
 it will not use this program in any manner prohibited above.
 ---------------------------------------------------------------
  

 Cite this work as:
 Gaussian 16, Revision C.01,
 M. J. Frisch, G. W. Trucks, H. B. Schlegel, G. E. Scuseria, 
 M. A. Robb, J. R. Cheeseman, G. Scalmani, V. Barone, 
 G. A. Petersson, H. Nakatsuji, X. Li, M. Caricato, A. V. Marenich, 
 J. Bloino, B. G. Janesko, R. Gomperts, B. Mennucci, H. P. Hratchian, 
 J. V. Ortiz, A. F. Izmaylov, J. L. Sonnenberg, D. Williams-Young, 
 F. Ding, F. Lipparini, F. Egidi, J. Goings, B. Peng, A. Petrone, 
 T. Henderson, D. Ranasinghe, V. G. Zakrzewski, J. Gao, N. Rega, 
 G. Zheng, W. Liang, M. Hada, M. Ehara, K. Toyota, R. Fukuda, 
 J. Hasegawa, M. Ishida, T. Nakajima, Y. Honda, O. Kitao, H. Nakai, 
 T. Vreven, K. Throssell, J. A. Montgomery, Jr., J. E. Peralta, 
 F. Ogliaro, M. J. Bearpark, J. J. Heyd, E. N. Brothers, K. N. Kudin, 
 V. N. Staroverov, T. A. Keith, R. Kobayashi, J. Normand, 
 K. Raghavachari, A. P. Rendell, J. C. Burant, S. S. Iyengar, 
 J. Tomasi, M. Cossi, J. M. Millam, M. Klene, C. Adamo, R. Cammi, 
 J. W. Ochterski, R. L. Martin, K. Morokuma, O. Farkas, 
 J. B. Foresman, and D. J. Fox, Gaussian, Inc., Wallingford CT, 2019.
 
 ******************************************
 Gaussian 16:  ES64L-G16RevC.01  3-Jul-2019
                28-Jul-2021 
 ******************************************
 %mem=8gb
 ---------------------------------------
 #N TD(NStates=10) BHandhlyp/6-311G(d,p)
 ---------------------------------------
 1/38=1,172=1/1;
 2/12=2,17=6,18=5,40=1/2;
 3/5=4,6=6,7=101,11=9,25=1,30=1,74=-3/1,2,3,8;
 4//1;
 5/5=2,38=5/2;
 8/6=1,10=2,108=10/1;
 9/41=10,42=1,70=2/14;
 6/7=2,8=2,9=2,10=2/1;
 99/5=1,9=1/99;
 ---------
 C25H20ON4
 ---------
 Symbolic Z-matrix:
 Charge =  0 Multiplicity = 1
 7                    -7.91      1.25397   0.14277 
 6                    -6.5744    1.6831    0.07196 
 6                    -6.22472   3.02008   0.3369 
 6                    -4.90576   3.43267   0.27183 
 6                    -3.86476   2.54781  -0.07062 
 6                    -4.22325   1.20945  -0.33316 
 6                    -5.53984   0.78937  -0.26159 
 6                    -8.38023   0.19008  -0.68433 
 6                    -8.13977   0.18677  -2.05867 
 6                    -8.60381  -0.84937  -2.86856 
 6                    -9.34297  -1.89383  -2.30778 
 6                    -9.59793  -1.88973  -0.93047 
 6                    -9.11611  -0.86761  -0.13017 
 6                    -8.83996   1.89609   1.01411 
 6                    -8.5301    2.10424   2.36706 
 6                    -9.43808   2.71609   3.21429 
 6                    -10.69333   3.11921   2.73983 
 6                    -11.01655   2.90466   1.39817 
 6                    -10.08823   2.30635   0.54633 
 1                    -6.99521   3.73398   0.59767 
 1                    -4.68016   4.46896   0.4983 
 6                    -2.48484   2.99987  -0.16254 
 1                    -3.44748   0.49909  -0.58015 
 1                    -5.77688  -0.24727  -0.46449 
 1                    -7.5778    0.99955  -2.50304 
 1                    -8.39428  -0.81968  -3.9293 
 8                    -9.85419  -2.94925  -3.0045 
 1                    -10.16795  -2.709    -0.50939 
 1                    -9.31181  -0.87815   0.93537 
 1                    -7.56841   1.78312   2.74904 
 1                    -9.20534   2.87949   4.25956 
 8                    -11.51758   3.69988   3.65796 
 1                    -11.97653   3.20457   1. 
 1                    -10.3438   2.14994  -0.49482 
 6                    -1.28291   2.27562  -0.14562 
 6                    -0.10629   3.09477  -0.25446 
 6                    -0.37781   4.4655   -0.37813 
 16                   -2.11208   4.68652  -0.3483 
 6                     0.51025   5.60373  -0.50406 
 6                     0.00905   6.90171  -0.75236 
 6                     0.8553    7.98416  -0.86752 
 6                     2.2563    7.8476   -0.74715 
 6                     2.75788   6.55073  -0.49687 
 6                     1.91357   5.46465  -0.37882 
 6                     3.04922   9.04171  -0.88929 
 6                     4.3953    9.26387  -0.84983 
 6                     4.85372   10.6668  -1.04159 
 8                     4.12716   11.61502  -1.22771 
 8                     6.19858   10.77792  -0.98547 
 7                    -1.18082   0.92412  -0.07711 
 7                     1.12737   2.53133  -0.17791 
 1                    -1.0574    7.05996  -0.86345 
 1                     0.43796   8.96678  -1.06045 
 1                     3.82142   6.39027  -0.38894 
 1                     2.32105   4.48416  -0.18146 
 1                     2.48052   9.9515   -1.06369 
 6                     5.38049   8.25847  -0.64392 
 1                     6.40153   11.71507  -1.11838 
 7                     6.17837   7.43757  -0.47775 
 6                     0.01781   0.38213  -0.06723 
 6                     1.21837   1.22456  -0.04397 
 6                     0.05663  -1.0994   -0.12609 
 6                     0.95654  -1.79542  -0.94594 
 6                     2.86374  -0.29882   1.12165 
 6                     2.58458   0.69389   0.17099 
 6                     3.67014   1.26021  -0.51505 
 6                     4.97047   0.84383  -0.2838 
 6                     5.2461   -0.15258   0.67138 
 6                     4.16271  -0.71157   1.3735 
 6                     0.91923  -3.17746  -1.04812 
 6                    -0.02273  -3.92877  -0.32317 
 6                    -0.93229  -3.23419   0.49441 
 6                    -0.89341  -1.85134   0.58037 
 1                     3.4815    2.04718  -1.23493 
 1                     5.78558   1.29918  -0.83112 
 1                     4.34565  -1.47523   2.11802 
 1                     1.62647  -3.68475  -1.69136 
 1                    -1.6752   -3.78583   1.05615 
 1                    -1.61637  -1.33263   1.19802 
 6                    -12.8043   4.12765   3.23589 
 6                    -9.63595  -3.00258  -4.40661 
 1                    -13.28107   4.55152   4.11812 
 1                    -12.73779   4.89587   2.45716 
 1                    -13.40627   3.28911   2.86763 
 1                    -10.08023  -2.14007  -4.91624 
 1                    -8.5678   -3.05471  -4.64633 
 1                    -10.12527  -3.91278  -4.74945 
 7                     6.56332  -0.57097   0.92001 
 6                     7.32159  -1.10044  -1.35631 
 6                     7.55365  -0.52318  -0.10781 
 6                     8.79232   0.09073   0.12743 
 6                     9.7651    0.12067  -0.8575 
 6                     9.52105  -0.44792  -2.11409 
 6                     8.28809  -1.05672  -2.3609 
 1                     8.07082  -1.50985  -3.31871 
 1                     8.98667   0.54382   1.09214 
 1                     6.37186  -1.58465  -1.55053 
 8                     10.53957  -0.35597  -3.01643 
 1                     10.72318   0.59514  -0.68353 
 6                     7.63604  -2.2727    2.32272 
 6                     6.94404  -1.068     2.20292 
 6                     6.65586  -0.34112   3.36828 
 6                     7.03657  -0.81806   4.61097 
 6                     7.73631  -2.02662   4.72413 
 6                     8.04114  -2.75022   3.5692 
 1                     6.12841   0.60213   3.29087 
 1                     7.86971  -2.84216   1.43114 
 8                     8.07339  -2.40207   5.99154 
 1                     6.81825  -0.26197   5.51458 
 6                     10.34541  -0.90155  -4.31277 
 1                     11.26756  -0.70787  -4.85825 
 1                     10.17005  -1.98276  -4.27274 
 1                     9.51027  -0.41763  -4.83185 
 7                    -0.05477  -5.33253  -0.41358 
 6                     1.27914  -7.05216  -1.55267 
 6                     0.3573   -5.99634  -1.6076 
 6                    -0.1548   -5.62384  -2.85092 
 6                     0.24986  -6.26855  -4.0197 
 6                     1.165    -7.32193  -3.95275 
 6                     1.67035  -7.71144  -2.70597 
 1                     2.38126  -8.52804  -2.67023 
 1                    -0.87287  -4.81455  -2.90964 
 1                     1.68417  -7.35475  -0.59444 
 8                     1.62348  -8.02686  -5.02726 
 1                    -0.16547  -5.94892  -4.96598 
 6                    -1.41964  -7.15183   0.50217 
 6                    -0.49173  -6.12707   0.68782 
 6                     0.02181  -5.91516   1.9767 
 6                    -0.39447  -6.69571   3.04174 
 6                    -1.32151  -7.72786   2.84683 
 6                    -1.82815  -7.95658   1.56576 
 1                    -2.54549  -8.74492   1.38149 
 1                     0.74958  -5.12893   2.1376 
 1                    -1.82317  -7.33059  -0.48729 
 8                    -1.65647  -8.44456   3.95822 
 1                    -0.00263  -6.53613   4.03897 
 6                     1.15037  -7.67413  -6.31862 
 6                    -2.59756  -9.49914   3.82296 
 1                     1.64713  -8.3503   -7.01253 
 1                     0.0655   -7.8064   -6.4007 
 1                     1.40961  -6.64027  -6.57385 
 1                    -2.23619  -10.27625   3.13972 
 1                    -3.56784  -9.13012   3.47157 
 1                    -2.71441  -9.92328   4.8189 
 1                     8.58122  -3.68578   3.62283 
 6                     8.78584  -3.61735   6.16891 
 1                     8.94659  -3.71423   7.24139 
 1                     8.20917  -4.47795   5.81109 
 1                     9.75573  -3.59359   5.65908 
 1                     1.6979   -1.25098  -1.51737 
 1                     2.05611  -0.75218   1.68258 
 
 Stoichiometry    C76H60N6O8S
 Framework group  C1[X(C76H60N6O8S)]
 Deg. of freedom   447
 Full point group                 C1      NOp   1
 Largest Abelian subgroup         C1      NOp   1
 Largest concise Abelian subgroup C1      NOp   1
                         Standard orientation:                         
 ---------------------------------------------------------------------
 Center     Atomic      Atomic             Coordinates (Angstroms)
 Number     Number       Type             X           Y           Z
 ---------------------------------------------------------------------
      1          7           0       -7.909998    1.253969    0.142774
      2          6           0       -6.574396    1.683095    0.071958
      3          6           0       -6.224716    3.020085    0.336904
      4          6           0       -4.905762    3.432674    0.271831
      5          6           0       -3.864764    2.547807   -0.070616
      6          6           0       -4.223248    1.209454   -0.333163
      7          6           0       -5.539841    0.789367   -0.261587
      8          6           0       -8.380227    0.190077   -0.684328
      9          6           0       -8.139772    0.186767   -2.058668
     10          6           0       -8.603813   -0.849372   -2.868563
     11          6           0       -9.342969   -1.893833   -2.307784
     12          6           0       -9.597928   -1.889730   -0.930465
     13          6           0       -9.116110   -0.867613   -0.130167
     14          6           0       -8.839962    1.896087    1.014106
     15          6           0       -8.530097    2.104237    2.367058
     16          6           0       -9.438078    2.716094    3.214291
     17          6           0      -10.693327    3.119209    2.739834
     18          6           0      -11.016552    2.904664    1.398167
     19          6           0      -10.088232    2.306347    0.546330
     20          1           0       -6.995209    3.733982    0.597669
     21          1           0       -4.680164    4.468964    0.498303
     22          6           0       -2.484840    2.999872   -0.162535
     23          1           0       -3.447475    0.499094   -0.580148
     24          1           0       -5.776883   -0.247270   -0.464487
     25          1           0       -7.577801    0.999546   -2.503043
     26          1           0       -8.394282   -0.819678   -3.929304
     27          8           0       -9.854190   -2.949249   -3.004504
     28          1           0      -10.167946   -2.708999   -0.509386
     29          1           0       -9.311809   -0.878149    0.935373
     30          1           0       -7.568412    1.783124    2.749042
     31          1           0       -9.205337    2.879494    4.259556
     32          8           0      -11.517579    3.699883    3.657963
     33          1           0      -11.976525    3.204572    0.999999
     34          1           0      -10.343805    2.149938   -0.494819
     35          6           0       -1.282906    2.275618   -0.145620
     36          6           0       -0.106285    3.094768   -0.254457
     37          6           0       -0.377809    4.465497   -0.378134
     38         16           0       -2.112078    4.686524   -0.348304
     39          6           0        0.510252    5.603729   -0.504058
     40          6           0        0.009050    6.901710   -0.752363
     41          6           0        0.855298    7.984156   -0.867519
     42          6           0        2.256297    7.847595   -0.747145
     43          6           0        2.757878    6.550732   -0.496866
     44          6           0        1.913568    5.464646   -0.378821
     45          6           0        3.049220    9.041705   -0.889289
     46          6           0        4.395302    9.263865   -0.849832
     47          6           0        4.853720   10.666798   -1.041589
     48          8           0        4.127155   11.615023   -1.227708
     49          8           0        6.198576   10.777918   -0.985469
     50          7           0       -1.180821    0.924115   -0.077108
     51          7           0        1.127368    2.531332   -0.177907
     52          1           0       -1.057401    7.059955   -0.863452
     53          1           0        0.437961    8.966785   -1.060452
     54          1           0        3.821422    6.390273   -0.388936
     55          1           0        2.321048    4.484156   -0.181458
     56          1           0        2.480519    9.951504   -1.063693
     57          6           0        5.380494    8.258469   -0.643924
     58          1           0        6.401526   11.715065   -1.118375
     59          7           0        6.178366    7.437573   -0.477745
     60          6           0        0.017807    0.382125   -0.067225
     61          6           0        1.218367    1.224560   -0.043972
     62          6           0        0.056625   -1.099400   -0.126094
     63          6           0        0.956540   -1.795424   -0.945936
     64          6           0        2.863736   -0.298821    1.121652
     65          6           0        2.584582    0.693890    0.170991
     66          6           0        3.670141    1.260211   -0.515054
     67          6           0        4.970473    0.843827   -0.283801
     68          6           0        5.246095   -0.152584    0.671381
     69          6           0        4.162712   -0.711566    1.373495
     70          6           0        0.919234   -3.177455   -1.048123
     71          6           0       -0.022731   -3.928770   -0.323172
     72          6           0       -0.932293   -3.234188    0.494408
     73          6           0       -0.893412   -1.851338    0.580366
     74          1           0        3.481502    2.047183   -1.234934
     75          1           0        5.785583    1.299183   -0.831124
     76          1           0        4.345649   -1.475231    2.118017
     77          1           0        1.626466   -3.684753   -1.691361
     78          1           0       -1.675201   -3.785834    1.056155
     79          1           0       -1.616368   -1.332629    1.198018
     80          6           0      -12.804301    4.127650    3.235893
     81          6           0       -9.635946   -3.002584   -4.406606
     82          1           0      -13.281069    4.551523    4.118122
     83          1           0      -12.737793    4.895873    2.457164
     84          1           0      -13.406274    3.289106    2.867632
     85          1           0      -10.080230   -2.140066   -4.916237
     86          1           0       -8.567796   -3.054710   -4.646325
     87          1           0      -10.125273   -3.912775   -4.749452
     88          7           0        6.563324   -0.570972    0.920009
     89          6           0        7.321587   -1.100438   -1.356308
     90          6           0        7.553652   -0.523181   -0.107812
     91          6           0        8.792325    0.090731    0.127426
     92          6           0        9.765096    0.120671   -0.857495
     93          6           0        9.521054   -0.447919   -2.114088
     94          6           0        8.288091   -1.056718   -2.360896
     95          1           0        8.070818   -1.509849   -3.318708
     96          1           0        8.986667    0.543822    1.092135
     97          1           0        6.371857   -1.584646   -1.550533
     98          8           0       10.539567   -0.355970   -3.016430
     99          1           0       10.723176    0.595135   -0.683532
    100          6           0        7.636035   -2.272704    2.322719
    101          6           0        6.944038   -1.068002    2.202916
    102          6           0        6.655859   -0.341124    3.368280
    103          6           0        7.036569   -0.818062    4.610975
    104          6           0        7.736310   -2.026623    4.724127
    105          6           0        8.041139   -2.750216    3.569198
    106          1           0        6.128406    0.602131    3.290872
    107          1           0        7.869710   -2.842158    1.431142
    108          8           0        8.073392   -2.402074    5.991536
    109          1           0        6.818245   -0.261965    5.514580
    110          6           0       10.345412   -0.901550   -4.312771
    111          1           0       11.267560   -0.707872   -4.858250
    112          1           0       10.170051   -1.982760   -4.272741
    113          1           0        9.510267   -0.417634   -4.831847
    114          7           0       -0.054765   -5.332532   -0.413582
    115          6           0        1.279144   -7.052159   -1.552673
    116          6           0        0.357301   -5.996338   -1.607602
    117          6           0       -0.154800   -5.623844   -2.850921
    118          6           0        0.249857   -6.268547   -4.019704
    119          6           0        1.164996   -7.321932   -3.952753
    120          6           0        1.670346   -7.711439   -2.705973
    121          1           0        2.381259   -8.528037   -2.670234
    122          1           0       -0.872866   -4.814547   -2.909635
    123          1           0        1.684172   -7.354748   -0.594439
    124          8           0        1.623475   -8.026860   -5.027256
    125          1           0       -0.165465   -5.948922   -4.965976
    126          6           0       -1.419636   -7.151827    0.502168
    127          6           0       -0.491734   -6.127068    0.687818
    128          6           0        0.021807   -5.915156    1.976704
    129          6           0       -0.394468   -6.695710    3.041737
    130          6           0       -1.321505   -7.727857    2.846828
    131          6           0       -1.828151   -7.956576    1.565756
    132          1           0       -2.545492   -8.744915    1.381486
    133          1           0        0.749583   -5.128930    2.137603
    134          1           0       -1.823169   -7.330594   -0.487291
    135          8           0       -1.656472   -8.444559    3.958220
    136          1           0       -0.002626   -6.536135    4.038974
    137          6           0        1.150371   -7.674134   -6.318622
    138          6           0       -2.597563   -9.499139    3.822964
    139          1           0        1.647125   -8.350299   -7.012530
    140          1           0        0.065496   -7.806402   -6.400696
    141          1           0        1.409607   -6.640270   -6.573849
    142          1           0       -2.236195  -10.276247    3.139725
    143          1           0       -3.567841   -9.130120    3.471570
    144          1           0       -2.714414   -9.923285    4.818897
    145          1           0        8.581223   -3.685783    3.622832
    146          6           0        8.785842   -3.617345    6.168906
    147          1           0        8.946590   -3.714229    7.241391
    148          1           0        8.209166   -4.477954    5.811088
    149          1           0        9.755735   -3.593587    5.659081
    150          1           0        1.697901   -1.250975   -1.517365
    151          1           0        2.056105   -0.752177    1.682584
 ---------------------------------------------------------------------
 Rotational constants (GHZ):           0.0140684           0.0098368           0.0068710
 Standard basis: 6-311G(d,p) (5D, 7F)
 There are  2097 symmetry adapted cartesian basis functions of A   symmetry.
 There are  2006 symmetry adapted basis functions of A   symmetry.
  2006 basis functions,  3406 primitive gaussians,  2097 cartesian basis functions
   319 alpha electrons      319 beta electrons
       nuclear repulsion energy     14370.1258655252 Hartrees.
 NAtoms=  151 NActive=  151 NUniq=  151 SFac= 1.00D+00 NAtFMM=   60 NAOKFM=T Big=T
 Integral buffers will be    131072 words long.
 Regular integral format.
 Two-electron integral symmetry is turned on.
 One-electron integrals computed using PRISM.
 NBasis=  2006 RedAO= T EigKep=  1.19D-04  NBF=  2006
 NBsUse=  2006 1.00D-06 EigRej= -1.00D+00 NBFU=  2006
 ExpMin= 7.71D-02 ExpMax= 9.34D+04 ExpMxC= 3.17D+03 IAcc=3 IRadAn=         5 AccDes= 0.00D+00
 Harris functional with IExCor=  402 and IRadAn=       5 diagonalized for initial guess.
 HarFok:  IExCor=  402 AccDes= 0.00D+00 IRadAn=         5 IDoV= 1 UseB2=F ITyADJ=14
 ICtDFT=  3500011 ScaDFX=  1.000000  1.000000  1.000000  1.000000
 FoFCou: FMM=F IPFlag=           0 FMFlag=      100000 FMFlg1=        2001
         NFxFlg=           0 DoJE=T BraDBF=F KetDBF=T FulRan=T
         wScrn=  0.000000 ICntrl=       500 IOpCl=  0 I1Cent=   200000004 NGrid=           0
         NMat0=    1 NMatS0=      1 NMatT0=    0 NMatD0=    1 NMtDS0=    0 NMtDT0=    0
 Petite list used in FoFCou.
 Requested convergence on RMS density matrix=1.00D-08 within 128 cycles.
 Requested convergence on MAX density matrix=1.00D-06.
 Requested convergence on             energy=1.00D-06.
 No special actions if energy rises.
 Integral accuracy reduced to 1.0D-05 until final iterations.
 Initial convergence to 1.0D-05 achieved.  Increase integral accuracy.
 SCF Done:  E(RBHandHLYP) =  -4259.22649489     A.U. after   16 cycles
            NFock= 16  Conv=0.33D-08     -V/T= 2.0038
 DoSCS=F DFT=T ScalE2(SS,OS)=  1.000000  1.000000
 ExpMin= 7.71D-02 ExpMax= 9.34D+04 ExpMxC= 3.17D+03 IAcc=3 IRadAn=         5 AccDes= 0.00D+00
 HarFok:  IExCor=  205 AccDes= 0.00D+00 IRadAn=         5 IDoV=-2 UseB2=F ITyADJ=14
 ICtDFT= 12500011 ScaDFX=  1.000000  1.000000  1.000000  1.000000
 GSVD:  LWork=       -9785 too small for GESVD, short by       46550 words or       46550 for optimal perf.
 Range of M.O.s used for correlation:    96  2006
 NBasis=  2006 NAE=   319 NBE=   319 NFC=    95 NFV=     0
 NROrb=   1911 NOA=   224 NOB=   224 NVA=  1687 NVB=  1687

 **** Warning!!: The largest alpha MO coefficient is  0.10720645D+02

 Orbital symmetries:
       Occupied  (A) (A) (A) (A) (A) (A) (A) (A) (A) (A) (A) (A)
                 (A) (A) (A) (A) (A) (A) (A) (A) (A) (A) (A) (A)
                 (A) (A) (A) (A) (A) (A) (A) (A) (A) (A) (A) (A)
                 (A) (A) (A) (A) (A) (A) (A) (A) (A) (A) (A) (A)
                 (A) (A) (A) (A) (A) (A) (A) (A) (A) (A) (A) (A)
                 (A) (A) (A) (A) (A) (A) (A) (A) (A) (A) (A) (A)
                 (A) (A) (A) (A) (A) (A) (A) (A) (A) (A) (A) (A)
                 (A) (A) (A) (A) (A) (A) (A) (A) (A) (A) (A) (A)
                 (A) (A) (A) (A) (A) (A) (A) (A) (A) (A) (A) (A)
                 (A) (A) (A) (A) (A) (A) (A) (A) (A) (A) (A) (A)
                 (A) (A) (A) (A) (A) (A) (A) (A) (A) (A) (A) (A)
                 (A) (A) (A) (A) (A) (A) (A) (A) (A) (A) (A) (A)
                 (A) (A) (A) (A) (A) (A) (A) (A) (A) (A) (A) (A)
                 (A) (A) (A) (A) (A) (A) (A) (A) (A) (A) (A) (A)
                 (A) (A) (A) (A) (A) (A) (A) (A) (A) (A) (A) (A)
                 (A) (A) (A) (A) (A) (A) (A) (A) (A) (A) (A) (A)
                 (A) (A) (A) (A) (A) (A) (A) (A) (A) (A) (A) (A)
                 (A) (A) (A) (A) (A) (A) (A) (A) (A) (A) (A) (A)
                 (A) (A) (A) (A) (A) (A) (A) (A) (A) (A) (A) (A)
                 (A) (A) (A) (A) (A) (A) (A) (A) (A) (A) (A) (A)
                 (A) (A) (A) (A) (A) (A) (A) (A) (A) (A) (A) (A)
                 (A) (A) (A) (A) (A) (A) (A) (A) (A) (A) (A) (A)
                 (A) (A) (A) (A) (A) (A) (A) (A) (A) (A) (A) (A)
                 (A) (A) (A) (A) (A) (A) (A) (A) (A) (A) (A) (A)
                 (A) (A) (A) (A) (A) (A) (A) (A) (A) (A) (A) (A)
                 (A) (A) (A) (A) (A) (A) (A) (A) (A) (A) (A) (A)
                 (A) (A) (A) (A) (A) (A) (A)
       Virtual   (A) (A) (A) (A) (A) (A) (A) (A) (A) (A) (A) (A)
                 (A) (A) (A) (A) (A) (A) (A) (A) (A) (A) (A) (A)
                 (A) (A) (A) (A) (A) (A) (A) (A) (A) (A) (A) (A)
                 (A) (A) (A) (A) (A) (A) (A) (A) (A) (A) (A) (A)
                 (A) (A) (A) (A) (A) (A) (A) (A) (A) (A) (A) (A)
                 (A) (A) (A) (A) (A) (A) (A) (A) (A) (A) (A) (A)
                 (A) (A) (A) (A) (A) (A) (A) (A) (A) (A) (A) (A)
                 (A) (A) (A) (A) (A) (A) (A) (A) (A) (A) (A) (A)
                 (A) (A) (A) (A) (A) (A) (A) (A) (A) (A) (A) (A)
                 (A) (A) (A) (A) (A) (A) (A) (A) (A) (A) (A) (A)
                 (A) (A) (A) (A) (A) (A) (A) (A) (A) (A) (A) (A)
                 (A) (A) (A) (A) (A) (A) (A) (A) (A) (A) (A) (A)
                 (A) (A) (A) (A) (A) (A) (A) (A) (A) (A) (A) (A)
                 (A) (A) (A) (A) (A) (A) (A) (A) (A) (A) (A) (A)
                 (A) (A) (A) (A) (A) (A) (A) (A) (A) (A) (A) (A)
                 (A) (A) (A) (A) (A) (A) (A) (A) (A) (A) (A) (A)
                 (A) (A) (A) (A) (A) (A) (A) (A) (A) (A) (A) (A)
                 (A) (A) (A) (A) (A) (A) (A) (A) (A) (A) (A) (A)
                 (A) (A) (A) (A) (A) (A) (A) (A) (A) (A) (A) (A)
                 (A) (A) (A) (A) (A) (A) (A) (A) (A) (A) (A) (A)
                 (A) (A) (A) (A) (A) (A) (A) (A) (A) (A) (A) (A)
                 (A) (A) (A) (A) (A) (A) (A) (A) (A) (A) (A) (A)
                 (A) (A) (A) (A) (A) (A) (A) (A) (A) (A) (A) (A)
                 (A) (A) (A) (A) (A) (A) (A) (A) (A) (A) (A) (A)
                 (A) (A) (A) (A) (A) (A) (A) (A) (A) (A) (A) (A)
                 (A) (A) (A) (A) (A) (A) (A) (A) (A) (A) (A) (A)
                 (A) (A) (A) (A) (A) (A) (A) (A) (A) (A) (A) (A)
                 (A) (A) (A) (A) (A) (A) (A) (A) (A) (A) (A) (A)
                 (A) (A) (A) (A) (A) (A) (A) (A) (A) (A) (A) (A)
                 (A) (A) (A) (A) (A) (A) (A) (A) (A) (A) (A) (A)
                 (A) (A) (A) (A) (A) (A) (A) (A) (A) (A) (A) (A)
                 (A) (A) (A) (A) (A) (A) (A) (A) (A) (A) (A) (A)
                 (A) (A) (A) (A) (A) (A) (A) (A) (A) (A) (A) (A)
                 (A) (A) (A) (A) (A) (A) (A) (A) (A) (A) (A) (A)
                 (A) (A) (A) (A) (A) (A) (A) (A) (A) (A) (A) (A)
                 (A) (A) (A) (A) (A) (A) (A) (A) (A) (A) (A) (A)
                 (A) (A) (A) (A) (A) (A) (A) (A) (A) (A) (A) (A)
                 (A) (A) (A) (A) (A) (A) (A) (A) (A) (A) (A) (A)
                 (A) (A) (A) (A) (A) (A) (A) (A) (A) (A) (A) (A)
                 (A) (A) (A) (A) (A) (A) (A) (A) (A) (A) (A) (A)
                 (A) (A) (A) (A) (A) (A) (A) (A) (A) (A) (A) (A)
                 (A) (A) (A) (A) (A) (A) (A) (A) (A) (A) (A) (A)
                 (A) (A) (A) (A) (A) (A) (A) (A) (A) (A) (A) (A)
                 (A) (A) (A) (A) (A) (A) (A) (A) (A) (A) (A) (A)
                 (A) (A) (A) (A) (A) (A) (A) (A) (A) (A) (A) (A)
                 (A) (A) (A) (A) (A) (A) (A) (A) (A) (A) (A) (A)
                 (A) (A) (A) (A) (A) (A) (A) (A) (A) (A) (A) (A)
                 (A) (A) (A) (A) (A) (A) (A) (A) (A) (A) (A) (A)
                 (A) (A) (A) (A) (A) (A) (A) (A) (A) (A) (A) (A)
                 (A) (A) (A) (A) (A) (A) (A) (A) (A) (A) (A) (A)
                 (A) (A) (A) (A) (A) (A) (A) (A) (A) (A) (A) (A)
                 (A) (A) (A) (A) (A) (A) (A) (A) (A) (A) (A) (A)
                 (A) (A) (A) (A) (A) (A) (A) (A) (A) (A) (A) (A)
                 (A) (A) (A) (A) (A) (A) (A) (A) (A) (A) (A) (A)
                 (A) (A) (A) (A) (A) (A) (A) (A) (A) (A) (A) (A)
                 (A) (A) (A) (A) (A) (A) (A) (A) (A) (A) (A) (A)
                 (A) (A) (A) (A) (A) (A) (A) (A) (A) (A) (A) (A)
                 (A) (A) (A) (A) (A) (A) (A) (A) (A) (A) (A) (A)
                 (A) (A) (A) (A) (A) (A) (A) (A) (A) (A) (A) (A)
                 (A) (A) (A) (A) (A) (A) (A) (A) (A) (A) (A) (A)
                 (A) (A) (A) (A) (A) (A) (A) (A) (A) (A) (A) (A)
                 (A) (A) (A) (A) (A) (A) (A) (A) (A) (A) (A) (A)
                 (A) (A) (A) (A) (A) (A) (A) (A) (A) (A) (A) (A)
                 (A) (A) (A) (A) (A) (A) (A) (A) (A) (A) (A) (A)
                 (A) (A) (A) (A) (A) (A) (A) (A) (A) (A) (A) (A)
                 (A) (A) (A) (A) (A) (A) (A) (A) (A) (A) (A) (A)
                 (A) (A) (A) (A) (A) (A) (A) (A) (A) (A) (A) (A)
                 (A) (A) (A) (A) (A) (A) (A) (A) (A) (A) (A) (A)
                 (A) (A) (A) (A) (A) (A) (A) (A) (A) (A) (A) (A)
                 (A) (A) (A) (A) (A) (A) (A) (A) (A) (A) (A) (A)
                 (A) (A) (A) (A) (A) (A) (A) (A) (A) (A) (A) (A)
                 (A) (A) (A) (A) (A) (A) (A) (A) (A) (A) (A) (A)
                 (A) (A) (A) (A) (A) (A) (A) (A) (A) (A) (A) (A)
                 (A) (A) (A) (A) (A) (A) (A) (A) (A) (A) (A) (A)
                 (A) (A) (A) (A) (A) (A) (A) (A) (A) (A) (A) (A)
                 (A) (A) (A) (A) (A) (A) (A) (A) (A) (A) (A) (A)
                 (A) (A) (A) (A) (A) (A) (A) (A) (A) (A) (A) (A)
                 (A) (A) (A) (A) (A) (A) (A) (A) (A) (A) (A) (A)
                 (A) (A) (A) (A) (A) (A) (A) (A) (A) (A) (A) (A)
                 (A) (A) (A) (A) (A) (A) (A) (A) (A) (A) (A) (A)
                 (A) (A) (A) (A) (A) (A) (A) (A) (A) (A) (A) (A)
                 (A) (A) (A) (A) (A) (A) (A) (A) (A) (A) (A) (A)
                 (A) (A) (A) (A) (A) (A) (A) (A) (A) (A) (A) (A)
                 (A) (A) (A) (A) (A) (A) (A) (A) (A) (A) (A) (A)
                 (A) (A) (A) (A) (A) (A) (A) (A) (A) (A) (A) (A)
                 (A) (A) (A) (A) (A) (A) (A) (A) (A) (A) (A) (A)
                 (A) (A) (A) (A) (A) (A) (A) (A) (A) (A) (A) (A)
                 (A) (A) (A) (A) (A) (A) (A) (A) (A) (A) (A) (A)
                 (A) (A) (A) (A) (A) (A) (A) (A) (A) (A) (A) (A)
                 (A) (A) (A) (A) (A) (A) (A) (A) (A) (A) (A) (A)
                 (A) (A) (A) (A) (A) (A) (A) (A) (A) (A) (A) (A)
                 (A) (A) (A) (A) (A) (A) (A) (A) (A) (A) (A) (A)
                 (A) (A) (A) (A) (A) (A) (A) (A) (A) (A) (A) (A)
                 (A) (A) (A) (A) (A) (A) (A) (A) (A) (A) (A) (A)
                 (A) (A) (A) (A) (A) (A) (A) (A) (A) (A) (A) (A)
                 (A) (A) (A) (A) (A) (A) (A) (A) (A) (A) (A) (A)
                 (A) (A) (A) (A) (A) (A) (A) (A) (A) (A) (A) (A)
                 (A) (A) (A) (A) (A) (A) (A) (A) (A) (A) (A) (A)
                 (A) (A) (A) (A) (A) (A) (A) (A) (A) (A) (A) (A)
                 (A) (A) (A) (A) (A) (A) (A) (A) (A) (A) (A) (A)
                 (A) (A) (A) (A) (A) (A) (A) (A) (A) (A) (A) (A)
                 (A) (A) (A) (A) (A) (A) (A) (A) (A) (A) (A) (A)
                 (A) (A) (A) (A) (A) (A) (A) (A) (A) (A) (A) (A)
                 (A) (A) (A) (A) (A) (A) (A) (A) (A) (A) (A) (A)
                 (A) (A) (A) (A) (A) (A) (A) (A) (A) (A) (A) (A)
                 (A) (A) (A) (A) (A) (A) (A) (A) (A) (A) (A) (A)
                 (A) (A) (A) (A) (A) (A) (A) (A) (A) (A) (A) (A)
                 (A) (A) (A) (A) (A) (A) (A) (A) (A) (A) (A) (A)
                 (A) (A) (A) (A) (A) (A) (A) (A) (A) (A) (A) (A)
                 (A) (A) (A) (A) (A) (A) (A) (A) (A) (A) (A) (A)
                 (A) (A) (A) (A) (A) (A) (A) (A) (A) (A) (A) (A)
                 (A) (A) (A) (A) (A) (A) (A) (A) (A) (A) (A) (A)
                 (A) (A) (A) (A) (A) (A) (A) (A) (A) (A) (A) (A)
                 (A) (A) (A) (A) (A) (A) (A) (A) (A) (A) (A) (A)
                 (A) (A) (A) (A) (A) (A) (A) (A) (A) (A) (A) (A)
                 (A) (A) (A) (A) (A) (A) (A) (A) (A) (A) (A) (A)
                 (A) (A) (A) (A) (A) (A) (A) (A) (A) (A) (A) (A)
                 (A) (A) (A) (A) (A) (A) (A) (A) (A) (A) (A) (A)
                 (A) (A) (A) (A) (A) (A) (A) (A) (A) (A) (A) (A)
                 (A) (A) (A) (A) (A) (A) (A) (A) (A) (A) (A) (A)
                 (A) (A) (A) (A) (A) (A) (A) (A) (A) (A) (A) (A)
                 (A) (A) (A) (A) (A) (A) (A) (A) (A) (A) (A) (A)
                 (A) (A) (A) (A) (A) (A) (A) (A) (A) (A) (A) (A)
                 (A) (A) (A) (A) (A) (A) (A) (A) (A) (A) (A) (A)
                 (A) (A) (A) (A) (A) (A) (A) (A) (A) (A) (A) (A)
                 (A) (A) (A) (A) (A) (A) (A) (A) (A) (A) (A) (A)
                 (A) (A) (A) (A) (A) (A) (A) (A) (A) (A) (A) (A)
                 (A) (A) (A) (A) (A) (A) (A) (A) (A) (A) (A) (A)
                 (A) (A) (A) (A) (A) (A) (A) (A) (A) (A) (A) (A)
                 (A) (A) (A) (A) (A) (A) (A) (A) (A) (A) (A) (A)
                 (A) (A) (A) (A) (A) (A) (A) (A) (A) (A) (A) (A)
                 (A) (A) (A) (A) (A) (A) (A) (A) (A) (A) (A) (A)
                 (A) (A) (A) (A) (A) (A) (A) (A) (A) (A) (A) (A)
                 (A) (A) (A) (A) (A) (A) (A) (A) (A) (A) (A) (A)
                 (A) (A) (A) (A) (A) (A) (A) (A) (A) (A) (A) (A)
                 (A) (A) (A) (A) (A) (A) (A) (A) (A) (A) (A) (A)
                 (A) (A) (A) (A) (A) (A) (A) (A) (A) (A) (A) (A)
                 (A) (A) (A) (A) (A) (A) (A) (A) (A) (A) (A) (A)
                 (A) (A) (A) (A) (A) (A) (A) (A) (A) (A) (A) (A)
                 (A) (A) (A) (A) (A) (A) (A) (A) (A) (A) (A) (A)
                 (A) (A) (A) (A) (A) (A) (A)
    40 initial guesses have been made.
 Convergence on wavefunction:    0.001000000000000
 Iteration     1 Dimension    40 NMult     0 NNew     40
 CISAX will form    40 AO SS matrices at one time.
 New state      9 was old state     11
 New state     10 was old state      9
 Iteration     2 Dimension    60 NMult    40 NNew     20
 Iteration     3 Dimension    80 NMult    60 NNew     20
 Iteration     4 Dimension   100 NMult    80 NNew     20
 No map to state      8
 New state      9 was old state      8
 New state     10 was old state      9
 Iteration     5 Dimension   120 NMult   100 NNew     20
 Iteration     6 Dimension   136 NMult   120 NNew     16
 Iteration     7 Dimension   146 NMult   136 NNew     10
 Iteration     8 Dimension   154 NMult   146 NNew      8
 Iteration     9 Dimension   160 NMult   154 NNew      6
 Iteration    10 Dimension   162 NMult   160 NNew      2
 Iteration    11 Dimension   164 NMult   162 NNew      2
 Iteration    12 Dimension   166 NMult   164 NNew      2
 ***********************************************************************
 Excited states from <AA,BB:AA,BB> singles matrix:
 ***********************************************************************
 
 Ground to excited state transition densities written to RWF  633
 Ground to excited state transition electric dipole moments (Au):
       state          X           Y           Z        Dip. S.      Osc.
         1        -3.3568     -2.0499      0.2918     15.5555      0.8767
         2         1.8239     -2.3595      0.2844      8.9748      0.6165
         3        -1.3677     -1.4339     -0.1291      3.9433      0.3020
         4        -1.1481     -2.0127      0.1391      5.3882      0.4297
         5         0.0688      1.3385     -0.0314      1.7974      0.1497
         6        -0.2465      0.7490     -0.0800      0.6281      0.0575
         7        -0.8516      0.6725      0.0785      1.1837      0.1097
         8        -0.5685      0.7061      0.2194      0.8700      0.0845
         9         2.2413      0.5858      0.1825      5.3999      0.5351
        10        -1.9762      0.8684     -0.2076      4.7025      0.4762
 Ground to excited state transition velocity dipole moments (Au):
       state          X           Y           Z        Dip. S.      Osc.
         1         0.2858      0.1742     -0.0243      0.1127      0.8883
         2        -0.1839      0.2378     -0.0286      0.0912      0.5901
         3         0.1551      0.1603      0.0133      0.0499      0.2897
         4         0.1251      0.2323     -0.0176      0.0699      0.3896
         5        -0.0089     -0.1700      0.0027      0.0290      0.1546
         6         0.0315     -0.1005      0.0188      0.0114      0.0556
         7         0.1159     -0.0905     -0.0181      0.0220      0.1052
         8         0.0793     -0.1061     -0.0297      0.0184      0.0843
         9        -0.3319     -0.0827     -0.0255      0.1176      0.5276
        10         0.2945     -0.1307      0.0331      0.1049      0.4604
 Ground to excited state transition magnetic dipole moments (Au):
       state          X           Y           Z
         1        -0.0340     -0.1472     -2.2499
         2        -0.1012     -0.0555      0.2879
         3         0.0825     -0.0259     -0.8567
         4         0.0119     -0.1583     -2.0987
         5         0.0464      0.1794      0.4655
         6        -0.0061     -0.0271     -0.1166
         7         0.0057     -0.0646     -0.7273
         8         0.0346     -0.1291     -1.3937
         9        -0.1688     -0.0236      1.8116
        10         0.0905      0.6306     -1.5633
 Ground to excited state transition velocity quadrupole moments (Au):
       state          XX          YY          ZZ          XY          XZ          YZ
         1        -2.8778      3.7853     -0.1541      2.1804     -0.0863     -0.5295
         2        -0.1837      1.7108     -0.4090      0.9094     -0.2588     -0.0777
         3         0.5412     -0.1303     -0.1230      0.3211      0.2333     -0.3469
         4         0.6934      3.5441     -0.1663      2.4343     -0.1648     -0.4524
         5        -3.4236     -2.3908     -0.0888     -1.7437      0.1187      0.1829
         6        -0.3370      0.2940      0.1597      0.0288     -0.0297      0.1236
         7         0.2394      1.7859      0.3118      0.9237     -0.0798     -0.1042
         8        -3.4122      3.6944      0.1884      1.1723     -0.3078     -0.0122
         9         0.6668      0.7505     -0.0292      0.3238     -0.4710      0.5370
        10        -1.8839     -0.6005      0.1373      0.1534     -0.1799     -0.1956
 <0|del|b> * <b|rxdel|0> + <0|del|b> * <b|delr+rdel|0>
 Rotatory Strengths (R) in cgs (10**-40 erg-esu-cm/Gauss)
       state          XX          YY          ZZ    R(velocity)    E-M Angle
         1       -37.3074   -222.5404    422.1822     54.1115       88.53
         2        48.5166    173.8564   -241.6037     -6.4102       91.71
         3      -149.8342   -174.5144    307.2637     -5.6950       90.83
         4       -12.9718     72.5131    -50.2261      3.1051       89.84
         5       -39.1575     11.4071   -139.9653    -55.9052      110.33
         6        -4.9337      2.4963      4.1792      0.5806       88.49
         7       -12.5289     46.9319     65.6090     33.3373       79.52
         8       -30.0255    189.3660    121.4823     93.6076       72.28
         9      -217.7799   -381.0891    654.5841     18.5717       88.92
        10      -355.2349   -204.4024     59.0690   -166.8561      101.34
 1/2[<0|r|b>*<b|rxdel|0> + (<0|rxdel|b>*<b|r|0>)*]
 Rotatory Strengths (R) in cgs (10**-40 erg-esu-cm/Gauss)
       state          XX          YY          ZZ     R(length)
         1       -80.7974   -213.4111    464.2946     56.6953
         2       130.5353    -92.5646    -57.9122     -6.6472
         3        79.8177    -26.2131    -78.1952     -8.1968
         4         9.6640   -225.3666    206.4496     -3.0843
         5        -2.2549   -169.8259     10.3234    -53.9191
         6        -1.0575     14.3557     -6.5955      2.2342
         7         3.4261     30.7418     40.3898     24.8525
         8        13.8980     64.4751    216.2432     98.2054
         9       267.5237      9.7795   -233.7719     14.5104
        10       126.4804   -387.2467   -229.5104   -163.4256
  1/2[<0|del|b>*<b|r|0> + (<0|r|b>*<b|del|0>)*] (Au)
       state          X           Y           Z        Dip. S.   Osc.(frdel)
         1        -0.9596     -0.3571     -0.0071      1.3238      0.8825
         2        -0.3355     -0.5611     -0.0081      0.9047      0.6032
         3        -0.2121     -0.2299     -0.0017      0.4437      0.2958
         4        -0.1436     -0.4675     -0.0024      0.6135      0.4090
         5        -0.0006     -0.2275     -0.0001      0.2282      0.1522
         6        -0.0078     -0.0752     -0.0015      0.0845      0.0563
         7        -0.0987     -0.0608     -0.0014      0.1610      0.1073
         8        -0.0451     -0.0749     -0.0065      0.1265      0.0843
         9        -0.7438     -0.0485     -0.0047      0.7970      0.5313
        10        -0.5819     -0.1135     -0.0069      0.7023      0.4682

 Excitation energies and oscillator strengths:
 
 Excited State   1:      Singlet-A      2.3005 eV  538.95 nm  f=0.8767  <S**2>=0.000
     316 -> 320       -0.17355
     319 -> 320        0.65787
     319 -> 321       -0.13500
 This state for optimization and/or second-order correction.
 Total Energy, E(TD-HF/TD-DFT) =  -4259.14195323    
 Copying the excited state density for this state as the 1-particle RhoCI density.
 
 Excited State   2:      Singlet-A      2.8038 eV  442.20 nm  f=0.6165  <S**2>=0.000
     315 -> 320       -0.15001
     316 -> 320       -0.10049
     318 -> 320        0.64388
     318 -> 321       -0.13524
     319 -> 321        0.10336
 
 Excited State   3:      Singlet-A      3.1260 eV  396.62 nm  f=0.3020  <S**2>=0.000
     317 -> 320        0.65291
     317 -> 321       -0.16817
     319 -> 321        0.10413
 
 Excited State   4:      Singlet-A      3.2552 eV  380.88 nm  f=0.4297  <S**2>=0.000
     316 -> 321       -0.24495
     319 -> 320        0.15372
     319 -> 321        0.60410
 
 Excited State   5:      Singlet-A      3.3997 eV  364.69 nm  f=0.1497  <S**2>=0.000
     311 -> 320        0.10927
     316 -> 320        0.62214
     318 -> 320        0.15024
     319 -> 320        0.12765
 
 Excited State   6:      Singlet-A      3.7344 eV  332.00 nm  f=0.0575  <S**2>=0.000
     297 -> 320       -0.29343
     297 -> 321        0.20028
     299 -> 320       -0.15562
     301 -> 320        0.19791
     301 -> 321       -0.11919
     307 -> 320        0.13325
     318 -> 320        0.11997
     318 -> 321        0.37220
 
 Excited State   7:      Singlet-A      3.7843 eV  327.63 nm  f=0.1097  <S**2>=0.000
     297 -> 320        0.21300
     297 -> 321       -0.14453
     299 -> 320        0.10591
     301 -> 320       -0.13358
     315 -> 321       -0.11213
     316 -> 320       -0.14593
     318 -> 320        0.12230
     318 -> 321        0.49752
 
 Excited State   8:      Singlet-A      3.9649 eV  312.70 nm  f=0.0845  <S**2>=0.000
     315 -> 320       -0.23428
     317 -> 320        0.10485
     317 -> 321        0.37940
     317 -> 323       -0.11762
     318 -> 322        0.19329
     319 -> 322       -0.35641
 
 Excited State   9:      Singlet-A      4.0446 eV  306.54 nm  f=0.5351  <S**2>=0.000
     315 -> 320        0.16578
     317 -> 320        0.16400
     317 -> 321        0.33044
     318 -> 322        0.27786
     319 -> 322        0.36850
     319 -> 323        0.16189
     319 -> 325        0.12077
 
 Excited State  10:      Singlet-A      4.1331 eV  299.98 nm  f=0.4762  <S**2>=0.000
     298 -> 320        0.10606
     308 -> 320        0.10196
     315 -> 320        0.46526
     317 -> 321        0.12454
     318 -> 320        0.10790
     318 -> 321       -0.19666
     318 -> 322       -0.14066
     319 -> 322       -0.17694
     319 -> 323       -0.24532
     319 -> 324        0.10319
 SavETr:  write IOETrn=   770 NScale= 10 NData=  16 NLR=1 NState=   10 LETran=     190.
 Hyperfine terms turned off by default for NAtoms > 100.

 **********************************************************************

            Population analysis using the SCF Density.

 **********************************************************************

 Orbital symmetries:
       Occupied  (A) (A) (A) (A) (A) (A) (A) (A) (A) (A) (A) (A)
                 (A) (A) (A) (A) (A) (A) (A) (A) (A) (A) (A) (A)
                 (A) (A) (A) (A) (A) (A) (A) (A) (A) (A) (A) (A)
                 (A) (A) (A) (A) (A) (A) (A) (A) (A) (A) (A) (A)
                 (A) (A) (A) (A) (A) (A) (A) (A) (A) (A) (A) (A)
                 (A) (A) (A) (A) (A) (A) (A) (A) (A) (A) (A) (A)
                 (A) (A) (A) (A) (A) (A) (A) (A) (A) (A) (A) (A)
                 (A) (A) (A) (A) (A) (A) (A) (A) (A) (A) (A) (A)
                 (A) (A) (A) (A) (A) (A) (A) (A) (A) (A) (A) (A)
                 (A) (A) (A) (A) (A) (A) (A) (A) (A) (A) (A) (A)
                 (A) (A) (A) (A) (A) (A) (A) (A) (A) (A) (A) (A)
                 (A) (A) (A) (A) (A) (A) (A) (A) (A) (A) (A) (A)
                 (A) (A) (A) (A) (A) (A) (A) (A) (A) (A) (A) (A)
                 (A) (A) (A) (A) (A) (A) (A) (A) (A) (A) (A) (A)
                 (A) (A) (A) (A) (A) (A) (A) (A) (A) (A) (A) (A)
                 (A) (A) (A) (A) (A) (A) (A) (A) (A) (A) (A) (A)
                 (A) (A) (A) (A) (A) (A) (A) (A) (A) (A) (A) (A)
                 (A) (A) (A) (A) (A) (A) (A) (A) (A) (A) (A) (A)
                 (A) (A) (A) (A) (A) (A) (A) (A) (A) (A) (A) (A)
                 (A) (A) (A) (A) (A) (A) (A) (A) (A) (A) (A) (A)
                 (A) (A) (A) (A) (A) (A) (A) (A) (A) (A) (A) (A)
                 (A) (A) (A) (A) (A) (A) (A) (A) (A) (A) (A) (A)
                 (A) (A) (A) (A) (A) (A) (A) (A) (A) (A) (A) (A)
                 (A) (A) (A) (A) (A) (A) (A) (A) (A) (A) (A) (A)
                 (A) (A) (A) (A) (A) (A) (A) (A) (A) (A) (A) (A)
                 (A) (A) (A) (A) (A) (A) (A) (A) (A) (A) (A) (A)
                 (A) (A) (A) (A) (A) (A) (A)
       Virtual   (A) (A) (A) (A) (A) (A) (A) (A) (A) (A) (A) (A)
                 (A) (A) (A) (A) (A) (A) (A) (A) (A) (A) (A) (A)
                 (A) (A) (A) (A) (A) (A) (A) (A) (A) (A) (A) (A)
                 (A) (A) (A) (A) (A) (A) (A) (A) (A) (A) (A) (A)
                 (A) (A) (A) (A) (A) (A) (A) (A) (A) (A) (A) (A)
                 (A) (A) (A) (A) (A) (A) (A) (A) (A) (A) (A) (A)
                 (A) (A) (A) (A) (A) (A) (A) (A) (A) (A) (A) (A)
                 (A) (A) (A) (A) (A) (A) (A) (A) (A) (A) (A) (A)
                 (A) (A) (A) (A) (A) (A) (A) (A) (A) (A) (A) (A)
                 (A) (A) (A) (A) (A) (A) (A) (A) (A) (A) (A) (A)
                 (A) (A) (A) (A) (A) (A) (A) (A) (A) (A) (A) (A)
                 (A) (A) (A) (A) (A) (A) (A) (A) (A) (A) (A) (A)
                 (A) (A) (A) (A) (A) (A) (A) (A) (A) (A) (A) (A)
                 (A) (A) (A) (A) (A) (A) (A) (A) (A) (A) (A) (A)
                 (A) (A) (A) (A) (A) (A) (A) (A) (A) (A) (A) (A)
                 (A) (A) (A) (A) (A) (A) (A) (A) (A) (A) (A) (A)
                 (A) (A) (A) (A) (A) (A) (A) (A) (A) (A) (A) (A)
                 (A) (A) (A) (A) (A) (A) (A) (A) (A) (A) (A) (A)
                 (A) (A) (A) (A) (A) (A) (A) (A) (A) (A) (A) (A)
                 (A) (A) (A) (A) (A) (A) (A) (A) (A) (A) (A) (A)
                 (A) (A) (A) (A) (A) (A) (A) (A) (A) (A) (A) (A)
                 (A) (A) (A) (A) (A) (A) (A) (A) (A) (A) (A) (A)
                 (A) (A) (A) (A) (A) (A) (A) (A) (A) (A) (A) (A)
                 (A) (A) (A) (A) (A) (A) (A) (A) (A) (A) (A) (A)
                 (A) (A) (A) (A) (A) (A) (A) (A) (A) (A) (A) (A)
                 (A) (A) (A) (A) (A) (A) (A) (A) (A) (A) (A) (A)
                 (A) (A) (A) (A) (A) (A) (A) (A) (A) (A) (A) (A)
                 (A) (A) (A) (A) (A) (A) (A) (A) (A) (A) (A) (A)
                 (A) (A) (A) (A) (A) (A) (A) (A) (A) (A) (A) (A)
                 (A) (A) (A) (A) (A) (A) (A) (A) (A) (A) (A) (A)
                 (A) (A) (A) (A) (A) (A) (A) (A) (A) (A) (A) (A)
                 (A) (A) (A) (A) (A) (A) (A) (A) (A) (A) (A) (A)
                 (A) (A) (A) (A) (A) (A) (A) (A) (A) (A) (A) (A)
                 (A) (A) (A) (A) (A) (A) (A) (A) (A) (A) (A) (A)
                 (A) (A) (A) (A) (A) (A) (A) (A) (A) (A) (A) (A)
                 (A) (A) (A) (A) (A) (A) (A) (A) (A) (A) (A) (A)
                 (A) (A) (A) (A) (A) (A) (A) (A) (A) (A) (A) (A)
                 (A) (A) (A) (A) (A) (A) (A) (A) (A) (A) (A) (A)
                 (A) (A) (A) (A) (A) (A) (A) (A) (A) (A) (A) (A)
                 (A) (A) (A) (A) (A) (A) (A) (A) (A) (A) (A) (A)
                 (A) (A) (A) (A) (A) (A) (A) (A) (A) (A) (A) (A)
                 (A) (A) (A) (A) (A) (A) (A) (A) (A) (A) (A) (A)
                 (A) (A) (A) (A) (A) (A) (A) (A) (A) (A) (A) (A)
                 (A) (A) (A) (A) (A) (A) (A) (A) (A) (A) (A) (A)
                 (A) (A) (A) (A) (A) (A) (A) (A) (A) (A) (A) (A)
                 (A) (A) (A) (A) (A) (A) (A) (A) (A) (A) (A) (A)
                 (A) (A) (A) (A) (A) (A) (A) (A) (A) (A) (A) (A)
                 (A) (A) (A) (A) (A) (A) (A) (A) (A) (A) (A) (A)
                 (A) (A) (A) (A) (A) (A) (A) (A) (A) (A) (A) (A)
                 (A) (A) (A) (A) (A) (A) (A) (A) (A) (A) (A) (A)
                 (A) (A) (A) (A) (A) (A) (A) (A) (A) (A) (A) (A)
                 (A) (A) (A) (A) (A) (A) (A) (A) (A) (A) (A) (A)
                 (A) (A) (A) (A) (A) (A) (A) (A) (A) (A) (A) (A)
                 (A) (A) (A) (A) (A) (A) (A) (A) (A) (A) (A) (A)
                 (A) (A) (A) (A) (A) (A) (A) (A) (A) (A) (A) (A)
                 (A) (A) (A) (A) (A) (A) (A) (A) (A) (A) (A) (A)
                 (A) (A) (A) (A) (A) (A) (A) (A) (A) (A) (A) (A)
                 (A) (A) (A) (A) (A) (A) (A) (A) (A) (A) (A) (A)
                 (A) (A) (A) (A) (A) (A) (A) (A) (A) (A) (A) (A)
                 (A) (A) (A) (A) (A) (A) (A) (A) (A) (A) (A) (A)
                 (A) (A) (A) (A) (A) (A) (A) (A) (A) (A) (A) (A)
                 (A) (A) (A) (A) (A) (A) (A) (A) (A) (A) (A) (A)
                 (A) (A) (A) (A) (A) (A) (A) (A) (A) (A) (A) (A)
                 (A) (A) (A) (A) (A) (A) (A) (A) (A) (A) (A) (A)
                 (A) (A) (A) (A) (A) (A) (A) (A) (A) (A) (A) (A)
                 (A) (A) (A) (A) (A) (A) (A) (A) (A) (A) (A) (A)
                 (A) (A) (A) (A) (A) (A) (A) (A) (A) (A) (A) (A)
                 (A) (A) (A) (A) (A) (A) (A) (A) (A) (A) (A) (A)
                 (A) (A) (A) (A) (A) (A) (A) (A) (A) (A) (A) (A)
                 (A) (A) (A) (A) (A) (A) (A) (A) (A) (A) (A) (A)
                 (A) (A) (A) (A) (A) (A) (A) (A) (A) (A) (A) (A)
                 (A) (A) (A) (A) (A) (A) (A) (A) (A) (A) (A) (A)
                 (A) (A) (A) (A) (A) (A) (A) (A) (A) (A) (A) (A)
                 (A) (A) (A) (A) (A) (A) (A) (A) (A) (A) (A) (A)
                 (A) (A) (A) (A) (A) (A) (A) (A) (A) (A) (A) (A)
                 (A) (A) (A) (A) (A) (A) (A) (A) (A) (A) (A) (A)
                 (A) (A) (A) (A) (A) (A) (A) (A) (A) (A) (A) (A)
                 (A) (A) (A) (A) (A) (A) (A) (A) (A) (A) (A) (A)
                 (A) (A) (A) (A) (A) (A) (A) (A) (A) (A) (A) (A)
                 (A) (A) (A) (A) (A) (A) (A) (A) (A) (A) (A) (A)
                 (A) (A) (A) (A) (A) (A) (A) (A) (A) (A) (A) (A)
                 (A) (A) (A) (A) (A) (A) (A) (A) (A) (A) (A) (A)
                 (A) (A) (A) (A) (A) (A) (A) (A) (A) (A) (A) (A)
                 (A) (A) (A) (A) (A) (A) (A) (A) (A) (A) (A) (A)
                 (A) (A) (A) (A) (A) (A) (A) (A) (A) (A) (A) (A)
                 (A) (A) (A) (A) (A) (A) (A) (A) (A) (A) (A) (A)
                 (A) (A) (A) (A) (A) (A) (A) (A) (A) (A) (A) (A)
                 (A) (A) (A) (A) (A) (A) (A) (A) (A) (A) (A) (A)
                 (A) (A) (A) (A) (A) (A) (A) (A) (A) (A) (A) (A)
                 (A) (A) (A) (A) (A) (A) (A) (A) (A) (A) (A) (A)
                 (A) (A) (A) (A) (A) (A) (A) (A) (A) (A) (A) (A)
                 (A) (A) (A) (A) (A) (A) (A) (A) (A) (A) (A) (A)
                 (A) (A) (A) (A) (A) (A) (A) (A) (A) (A) (A) (A)
                 (A) (A) (A) (A) (A) (A) (A) (A) (A) (A) (A) (A)
                 (A) (A) (A) (A) (A) (A) (A) (A) (A) (A) (A) (A)
                 (A) (A) (A) (A) (A) (A) (A) (A) (A) (A) (A) (A)
                 (A) (A) (A) (A) (A) (A) (A) (A) (A) (A) (A) (A)
                 (A) (A) (A) (A) (A) (A) (A) (A) (A) (A) (A) (A)
                 (A) (A) (A) (A) (A) (A) (A) (A) (A) (A) (A) (A)
                 (A) (A) (A) (A) (A) (A) (A) (A) (A) (A) (A) (A)
                 (A) (A) (A) (A) (A) (A) (A) (A) (A) (A) (A) (A)
                 (A) (A) (A) (A) (A) (A) (A) (A) (A) (A) (A) (A)
                 (A) (A) (A) (A) (A) (A) (A) (A) (A) (A) (A) (A)
                 (A) (A) (A) (A) (A) (A) (A) (A) (A) (A) (A) (A)
                 (A) (A) (A) (A) (A) (A) (A) (A) (A) (A) (A) (A)
                 (A) (A) (A) (A) (A) (A) (A) (A) (A) (A) (A) (A)
                 (A) (A) (A) (A) (A) (A) (A) (A) (A) (A) (A) (A)
                 (A) (A) (A) (A) (A) (A) (A) (A) (A) (A) (A) (A)
                 (A) (A) (A) (A) (A) (A) (A) (A) (A) (A) (A) (A)
                 (A) (A) (A) (A) (A) (A) (A) (A) (A) (A) (A) (A)
                 (A) (A) (A) (A) (A) (A) (A) (A) (A) (A) (A) (A)
                 (A) (A) (A) (A) (A) (A) (A) (A) (A) (A) (A) (A)
                 (A) (A) (A) (A) (A) (A) (A) (A) (A) (A) (A) (A)
                 (A) (A) (A) (A) (A) (A) (A) (A) (A) (A) (A) (A)
                 (A) (A) (A) (A) (A) (A) (A) (A) (A) (A) (A) (A)
                 (A) (A) (A) (A) (A) (A) (A) (A) (A) (A) (A) (A)
                 (A) (A) (A) (A) (A) (A) (A) (A) (A) (A) (A) (A)
                 (A) (A) (A) (A) (A) (A) (A) (A) (A) (A) (A) (A)
                 (A) (A) (A) (A) (A) (A) (A) (A) (A) (A) (A) (A)
                 (A) (A) (A) (A) (A) (A) (A) (A) (A) (A) (A) (A)
                 (A) (A) (A) (A) (A) (A) (A) (A) (A) (A) (A) (A)
                 (A) (A) (A) (A) (A) (A) (A) (A) (A) (A) (A) (A)
                 (A) (A) (A) (A) (A) (A) (A) (A) (A) (A) (A) (A)
                 (A) (A) (A) (A) (A) (A) (A) (A) (A) (A) (A) (A)
                 (A) (A) (A) (A) (A) (A) (A) (A) (A) (A) (A) (A)
                 (A) (A) (A) (A) (A) (A) (A) (A) (A) (A) (A) (A)
                 (A) (A) (A) (A) (A) (A) (A) (A) (A) (A) (A) (A)
                 (A) (A) (A) (A) (A) (A) (A) (A) (A) (A) (A) (A)
                 (A) (A) (A) (A) (A) (A) (A) (A) (A) (A) (A) (A)
                 (A) (A) (A) (A) (A) (A) (A) (A) (A) (A) (A) (A)
                 (A) (A) (A) (A) (A) (A) (A) (A) (A) (A) (A) (A)
                 (A) (A) (A) (A) (A) (A) (A) (A) (A) (A) (A) (A)
                 (A) (A) (A) (A) (A) (A) (A) (A) (A) (A) (A) (A)
                 (A) (A) (A) (A) (A) (A) (A) (A) (A) (A) (A) (A)
                 (A) (A) (A) (A) (A) (A) (A) (A) (A) (A) (A) (A)
                 (A) (A) (A) (A) (A) (A) (A) (A) (A) (A) (A) (A)
                 (A) (A) (A) (A) (A) (A) (A) (A) (A) (A) (A) (A)
                 (A) (A) (A) (A) (A) (A) (A) (A) (A) (A) (A) (A)
                 (A) (A) (A) (A) (A) (A) (A) (A) (A) (A) (A) (A)
                 (A) (A) (A) (A) (A) (A) (A) (A) (A) (A) (A) (A)
                 (A) (A) (A) (A) (A) (A) (A)
 The electronic state is 1-A.
 Alpha  occ. eigenvalues --  -90.08257 -19.72259 -19.70659 -19.70648 -19.70538
 Alpha  occ. eigenvalues --  -19.70488 -19.70207 -19.70178 -19.66228 -14.82616
 Alpha  occ. eigenvalues --  -14.82452 -14.82143 -14.81012 -14.80805 -14.78792
 Alpha  occ. eigenvalues --  -10.73282 -10.65305 -10.65298 -10.65211 -10.65144
 Alpha  occ. eigenvalues --  -10.65113 -10.64861 -10.64852 -10.64792 -10.64221
 Alpha  occ. eigenvalues --  -10.64206 -10.64068 -10.64034 -10.63770 -10.63745
 Alpha  occ. eigenvalues --  -10.63694 -10.63641 -10.63591 -10.63419 -10.63303
 Alpha  occ. eigenvalues --  -10.63275 -10.62868 -10.62803 -10.62661 -10.62657
 Alpha  occ. eigenvalues --  -10.62642 -10.62629 -10.62576 -10.62214 -10.62187
 Alpha  occ. eigenvalues --  -10.62145 -10.61605 -10.60656 -10.60248 -10.60134
 Alpha  occ. eigenvalues --  -10.59467 -10.59450 -10.59349 -10.59349 -10.59293
 Alpha  occ. eigenvalues --  -10.59260 -10.59254 -10.59228 -10.59225 -10.59202
 Alpha  occ. eigenvalues --  -10.59193 -10.59167 -10.59148 -10.59144 -10.59083
 Alpha  occ. eigenvalues --  -10.59055 -10.59040 -10.59002 -10.58952 -10.58919
 Alpha  occ. eigenvalues --  -10.58899 -10.58848 -10.58804 -10.58744 -10.58731
 Alpha  occ. eigenvalues --  -10.58721 -10.58714 -10.58707 -10.58694 -10.58672
 Alpha  occ. eigenvalues --  -10.58626 -10.58564 -10.58492 -10.58397 -10.58288
 Alpha  occ. eigenvalues --  -10.58219 -10.58198 -10.58188 -10.58146 -10.57951
 Alpha  occ. eigenvalues --  -10.57905  -8.37010  -6.22760  -6.22491  -6.22271
 Alpha  occ. eigenvalues --   -1.25350  -1.20779  -1.20776  -1.20673  -1.20614
 Alpha  occ. eigenvalues --   -1.20335  -1.20316  -1.15693  -1.11650  -1.09547
 Alpha  occ. eigenvalues --   -1.09424  -1.09116  -1.04314  -1.02861  -1.01402
 Alpha  occ. eigenvalues --   -0.99352  -0.98329  -0.98200  -0.98173  -0.97914
 Alpha  occ. eigenvalues --   -0.97786  -0.97675  -0.96150  -0.95998  -0.95588
 Alpha  occ. eigenvalues --   -0.94452  -0.90180  -0.90038  -0.87855  -0.87829
 Alpha  occ. eigenvalues --   -0.87765  -0.87664  -0.87427  -0.86841  -0.86748
 Alpha  occ. eigenvalues --   -0.86704  -0.86649  -0.86572  -0.86363  -0.86215
 Alpha  occ. eigenvalues --   -0.85920  -0.85784  -0.85550  -0.85239  -0.84733
 Alpha  occ. eigenvalues --   -0.83793  -0.82719  -0.81988  -0.80714  -0.80693
 Alpha  occ. eigenvalues --   -0.80319  -0.79116  -0.79022  -0.78784  -0.77488
 Alpha  occ. eigenvalues --   -0.75892  -0.74121  -0.73048  -0.72108  -0.72036
 Alpha  occ. eigenvalues --   -0.71970  -0.71803  -0.71606  -0.71373  -0.71006
 Alpha  occ. eigenvalues --   -0.70822  -0.70614  -0.70473  -0.70041  -0.69371
 Alpha  occ. eigenvalues --   -0.69082  -0.68961  -0.68869  -0.68510  -0.67467
 Alpha  occ. eigenvalues --   -0.66402  -0.66052  -0.65562  -0.64703  -0.63263
 Alpha  occ. eigenvalues --   -0.62636  -0.62474  -0.62320  -0.62223  -0.62163
 Alpha  occ. eigenvalues --   -0.61931  -0.61791  -0.60955  -0.60756  -0.60570
 Alpha  occ. eigenvalues --   -0.59642  -0.59483  -0.59230  -0.59040  -0.58541
 Alpha  occ. eigenvalues --   -0.58022  -0.57445  -0.57390  -0.57053  -0.56566
 Alpha  occ. eigenvalues --   -0.56426  -0.56133  -0.55746  -0.55609  -0.55192
 Alpha  occ. eigenvalues --   -0.55179  -0.55056  -0.55014  -0.54741  -0.54734
 Alpha  occ. eigenvalues --   -0.54713  -0.54312  -0.53636  -0.53354  -0.53180
 Alpha  occ. eigenvalues --   -0.52945  -0.52863  -0.52841  -0.52679  -0.52456
 Alpha  occ. eigenvalues --   -0.52438  -0.52067  -0.51855  -0.51398  -0.51366
 Alpha  occ. eigenvalues --   -0.51054  -0.50748  -0.50477  -0.50402  -0.50235
 Alpha  occ. eigenvalues --   -0.50196  -0.50109  -0.50033  -0.49893  -0.49833
 Alpha  occ. eigenvalues --   -0.49819  -0.49496  -0.49460  -0.49222  -0.49172
 Alpha  occ. eigenvalues --   -0.49138  -0.49062  -0.49030  -0.48766  -0.48650
 Alpha  occ. eigenvalues --   -0.48291  -0.48014  -0.47671  -0.47205  -0.46081
 Alpha  occ. eigenvalues --   -0.45997  -0.45755  -0.45693  -0.45591  -0.45353
 Alpha  occ. eigenvalues --   -0.45189  -0.45014  -0.44964  -0.44939  -0.44742
 Alpha  occ. eigenvalues --   -0.44593  -0.44560  -0.44313  -0.44069  -0.43994
 Alpha  occ. eigenvalues --   -0.43841  -0.43675  -0.43542  -0.43514  -0.43312
 Alpha  occ. eigenvalues --   -0.43209  -0.43093  -0.42856  -0.42689  -0.42534
 Alpha  occ. eigenvalues --   -0.41435  -0.41274  -0.40820  -0.40659  -0.40466
 Alpha  occ. eigenvalues --   -0.40371  -0.40100  -0.40015  -0.39970  -0.39950
 Alpha  occ. eigenvalues --   -0.39753  -0.39619  -0.39592  -0.39569  -0.39411
 Alpha  occ. eigenvalues --   -0.39385  -0.39360  -0.39241  -0.39000  -0.38846
 Alpha  occ. eigenvalues --   -0.38046  -0.36636  -0.35501  -0.35216  -0.35147
 Alpha  occ. eigenvalues --   -0.34743  -0.31524  -0.31185  -0.30967  -0.30803
 Alpha  occ. eigenvalues --   -0.30704  -0.30430  -0.30371  -0.30185  -0.30077
 Alpha  occ. eigenvalues --   -0.29813  -0.29743  -0.29636  -0.29085  -0.28567
 Alpha  occ. eigenvalues --   -0.28346  -0.27795  -0.27767  -0.27402  -0.26696
 Alpha  occ. eigenvalues --   -0.23970  -0.22180  -0.21457  -0.20555
 Alpha virt. eigenvalues --   -0.07205  -0.03897  -0.00078   0.01156   0.01306
 Alpha virt. eigenvalues --    0.01550   0.01850   0.03246   0.03257   0.03292
 Alpha virt. eigenvalues --    0.03550   0.03684   0.03695   0.03747   0.03985
 Alpha virt. eigenvalues --    0.04074   0.04158   0.04630   0.05220   0.06049
 Alpha virt. eigenvalues --    0.07125   0.07161   0.07308   0.07497   0.07608
 Alpha virt. eigenvalues --    0.07782   0.07783   0.08054   0.08113   0.08285
 Alpha virt. eigenvalues --    0.08337   0.08435   0.08627   0.08895   0.09268
 Alpha virt. eigenvalues --    0.09480   0.10072   0.10292   0.10392   0.10596
 Alpha virt. eigenvalues --    0.10659   0.10804   0.11008   0.11052   0.11077
 Alpha virt. eigenvalues --    0.11259   0.11367   0.11456   0.11540   0.11730
 Alpha virt. eigenvalues --    0.12274   0.12338   0.12695   0.13492   0.13703
 Alpha virt. eigenvalues --    0.13744   0.14113   0.14153   0.14184   0.14501
 Alpha virt. eigenvalues --    0.14548   0.14568   0.14601   0.14703   0.14725
 Alpha virt. eigenvalues --    0.14788   0.14848   0.14952   0.15016   0.15263
 Alpha virt. eigenvalues --    0.15532   0.15590   0.15758   0.15901   0.16124
 Alpha virt. eigenvalues --    0.16434   0.16546   0.16941   0.17059   0.17239
 Alpha virt. eigenvalues --    0.17298   0.17334   0.17574   0.17713   0.17807
 Alpha virt. eigenvalues --    0.17911   0.18172   0.18304   0.18397   0.18796
 Alpha virt. eigenvalues --    0.19022   0.19125   0.19382   0.19648   0.20292
 Alpha virt. eigenvalues --    0.20835   0.20859   0.20996   0.21070   0.21282
 Alpha virt. eigenvalues --    0.21496   0.22473   0.22661   0.22984   0.23440
 Alpha virt. eigenvalues --    0.23524   0.23761   0.24023   0.24091   0.24226
 Alpha virt. eigenvalues --    0.24657   0.26086   0.26283   0.26688   0.26718
 Alpha virt. eigenvalues --    0.26824   0.26885   0.27033   0.27231   0.27280
 Alpha virt. eigenvalues --    0.27761   0.28120   0.28641   0.29349   0.29647
 Alpha virt. eigenvalues --    0.29712   0.29793   0.29906   0.29963   0.30025
 Alpha virt. eigenvalues --    0.30305   0.30868   0.31036   0.31171   0.31490
 Alpha virt. eigenvalues --    0.31613   0.31653   0.31889   0.32067   0.32435
 Alpha virt. eigenvalues --    0.32575   0.32718   0.33108   0.33198   0.33478
 Alpha virt. eigenvalues --    0.34131   0.34195   0.34375   0.34556   0.34869
 Alpha virt. eigenvalues --    0.35045   0.35280   0.35344   0.35361   0.35499
 Alpha virt. eigenvalues --    0.35526   0.35787   0.35833   0.36290   0.36656
 Alpha virt. eigenvalues --    0.36690   0.37083   0.37139   0.37294   0.37323
 Alpha virt. eigenvalues --    0.37468   0.37568   0.37711   0.37864   0.38284
 Alpha virt. eigenvalues --    0.38363   0.38814   0.39015   0.39071   0.39240
 Alpha virt. eigenvalues --    0.39553   0.39670   0.39858   0.40021   0.40201
 Alpha virt. eigenvalues --    0.40275   0.40409   0.40929   0.41068   0.41454
 Alpha virt. eigenvalues --    0.41729   0.41872   0.42005   0.42160   0.42261
 Alpha virt. eigenvalues --    0.42452   0.42664   0.42828   0.42914   0.43256
 Alpha virt. eigenvalues --    0.43335   0.43527   0.43598   0.43755   0.43813
 Alpha virt. eigenvalues --    0.43900   0.43922   0.44009   0.44256   0.44371
 Alpha virt. eigenvalues --    0.44476   0.44682   0.44878   0.44951   0.44997
 Alpha virt. eigenvalues --    0.45096   0.45253   0.45309   0.45353   0.45506
 Alpha virt. eigenvalues --    0.45603   0.45633   0.45668   0.46238   0.46408
 Alpha virt. eigenvalues --    0.46443   0.46632   0.46824   0.46889   0.47127
 Alpha virt. eigenvalues --    0.47146   0.47255   0.47355   0.47491   0.47528
 Alpha virt. eigenvalues --    0.47564   0.47751   0.47791   0.47990   0.48057
 Alpha virt. eigenvalues --    0.48078   0.48235   0.48317   0.48395   0.48475
 Alpha virt. eigenvalues --    0.48656   0.48792   0.48875   0.48951   0.49103
 Alpha virt. eigenvalues --    0.49244   0.49486   0.49618   0.49680   0.49804
 Alpha virt. eigenvalues --    0.49993   0.50171   0.50282   0.50377   0.50487
 Alpha virt. eigenvalues --    0.50577   0.50733   0.50865   0.50911   0.51085
 Alpha virt. eigenvalues --    0.51182   0.51429   0.51557   0.51669   0.51875
 Alpha virt. eigenvalues --    0.51917   0.52166   0.52636   0.52843   0.53082
 Alpha virt. eigenvalues --    0.53211   0.53331   0.53474   0.53547   0.53865
 Alpha virt. eigenvalues --    0.54085   0.54295   0.54341   0.54611   0.54718
 Alpha virt. eigenvalues --    0.54780   0.54873   0.55048   0.55109   0.55229
 Alpha virt. eigenvalues --    0.55330   0.55550   0.55780   0.55960   0.56023
 Alpha virt. eigenvalues --    0.56404   0.56605   0.56752   0.56855   0.56884
 Alpha virt. eigenvalues --    0.57032   0.57164   0.57328   0.57447   0.57511
 Alpha virt. eigenvalues --    0.57660   0.57845   0.58020   0.58320   0.58365
 Alpha virt. eigenvalues --    0.58659   0.58727   0.58976   0.59177   0.59258
 Alpha virt. eigenvalues --    0.60019   0.60167   0.60280   0.60404   0.60581
 Alpha virt. eigenvalues --    0.60805   0.60966   0.61159   0.61377   0.61518
 Alpha virt. eigenvalues --    0.61714   0.61839   0.62138   0.62245   0.62493
 Alpha virt. eigenvalues --    0.62574   0.62611   0.62884   0.62989   0.63075
 Alpha virt. eigenvalues --    0.63217   0.63472   0.63647   0.63796   0.63961
 Alpha virt. eigenvalues --    0.64021   0.64096   0.64360   0.64452   0.64588
 Alpha virt. eigenvalues --    0.64730   0.64910   0.65328   0.65456   0.65590
 Alpha virt. eigenvalues --    0.65727   0.65893   0.66007   0.66153   0.66323
 Alpha virt. eigenvalues --    0.66366   0.66680   0.66793   0.66818   0.67061
 Alpha virt. eigenvalues --    0.67112   0.67180   0.67402   0.67427   0.67485
 Alpha virt. eigenvalues --    0.67522   0.67636   0.67734   0.67762   0.67938
 Alpha virt. eigenvalues --    0.67991   0.68063   0.68116   0.68193   0.68341
 Alpha virt. eigenvalues --    0.68381   0.68431   0.68598   0.68704   0.68769
 Alpha virt. eigenvalues --    0.69043   0.69068   0.69273   0.69548   0.69806
 Alpha virt. eigenvalues --    0.69974   0.70071   0.70180   0.70307   0.70441
 Alpha virt. eigenvalues --    0.70567   0.70928   0.71020   0.71230   0.71283
 Alpha virt. eigenvalues --    0.71393   0.71565   0.71808   0.71820   0.71908
 Alpha virt. eigenvalues --    0.72033   0.72095   0.72331   0.72489   0.72580
 Alpha virt. eigenvalues --    0.72592   0.72851   0.73143   0.73286   0.73338
 Alpha virt. eigenvalues --    0.73569   0.73670   0.73881   0.74109   0.74259
 Alpha virt. eigenvalues --    0.74482   0.74531   0.75004   0.75314   0.75524
 Alpha virt. eigenvalues --    0.75900   0.76080   0.76384   0.76463   0.76558
 Alpha virt. eigenvalues --    0.76906   0.77161   0.77391   0.77511   0.77658
 Alpha virt. eigenvalues --    0.77976   0.78083   0.78150   0.78209   0.78383
 Alpha virt. eigenvalues --    0.78629   0.78738   0.79108   0.79395   0.79471
 Alpha virt. eigenvalues --    0.80055   0.80666   0.80861   0.81143   0.81401
 Alpha virt. eigenvalues --    0.81435   0.81537   0.81723   0.82009   0.82158
 Alpha virt. eigenvalues --    0.82826   0.83264   0.83850   0.83947   0.84232
 Alpha virt. eigenvalues --    0.84457   0.84959   0.85371   0.85592   0.85774
 Alpha virt. eigenvalues --    0.85905   0.86253   0.86368   0.86682   0.86857
 Alpha virt. eigenvalues --    0.86964   0.87019   0.87086   0.87253   0.87384
 Alpha virt. eigenvalues --    0.87501   0.87572   0.87799   0.87885   0.88053
 Alpha virt. eigenvalues --    0.88166   0.88393   0.88516   0.88607   0.88948
 Alpha virt. eigenvalues --    0.89056   0.89307   0.89547   0.89618   0.89814
 Alpha virt. eigenvalues --    0.89933   0.90112   0.90370   0.90454   0.90588
 Alpha virt. eigenvalues --    0.90758   0.90930   0.91006   0.91264   0.91528
 Alpha virt. eigenvalues --    0.91707   0.91989   0.92167   0.92323   0.92456
 Alpha virt. eigenvalues --    0.92547   0.92720   0.93385   0.93756   0.94025
 Alpha virt. eigenvalues --    0.94253   0.94713   0.94907   0.95009   0.95068
 Alpha virt. eigenvalues --    0.95207   0.95330   0.95628   0.95783   0.96125
 Alpha virt. eigenvalues --    0.96237   0.96418   0.96483   0.96712   0.97014
 Alpha virt. eigenvalues --    0.97098   0.97264   0.97370   0.97769   0.97944
 Alpha virt. eigenvalues --    0.98138   0.98401   0.98907   0.98932   0.99143
 Alpha virt. eigenvalues --    0.99218   0.99416   0.99551   0.99741   0.99937
 Alpha virt. eigenvalues --    1.00028   1.00368   1.00731   1.00856   1.01215
 Alpha virt. eigenvalues --    1.01518   1.01793   1.01893   1.02238   1.02402
 Alpha virt. eigenvalues --    1.02546   1.02869   1.03106   1.03232   1.03798
 Alpha virt. eigenvalues --    1.03897   1.04013   1.04214   1.04348   1.04483
 Alpha virt. eigenvalues --    1.04886   1.05084   1.05308   1.05573   1.05810
 Alpha virt. eigenvalues --    1.05878   1.06159   1.06848   1.06964   1.07114
 Alpha virt. eigenvalues --    1.07359   1.07696   1.07876   1.08143   1.08188
 Alpha virt. eigenvalues --    1.08608   1.08833   1.08985   1.09240   1.09539
 Alpha virt. eigenvalues --    1.09795   1.09873   1.09962   1.10140   1.10748
 Alpha virt. eigenvalues --    1.10788   1.10953   1.11322   1.11566   1.11718
 Alpha virt. eigenvalues --    1.12026   1.12052   1.12239   1.12363   1.12540
 Alpha virt. eigenvalues --    1.12711   1.12834   1.12932   1.13274   1.13464
 Alpha virt. eigenvalues --    1.13690   1.13798   1.14289   1.14628   1.14896
 Alpha virt. eigenvalues --    1.15112   1.15604   1.15839   1.16019   1.16291
 Alpha virt. eigenvalues --    1.16300   1.16518   1.16760   1.16869   1.17408
 Alpha virt. eigenvalues --    1.17469   1.17671   1.17857   1.17988   1.18144
 Alpha virt. eigenvalues --    1.18377   1.18481   1.18570   1.18934   1.19078
 Alpha virt. eigenvalues --    1.19187   1.19601   1.19712   1.20167   1.20567
 Alpha virt. eigenvalues --    1.20691   1.20845   1.20880   1.21349   1.21404
 Alpha virt. eigenvalues --    1.21738   1.22015   1.22129   1.22447   1.22570
 Alpha virt. eigenvalues --    1.22811   1.22970   1.23022   1.23108   1.23328
 Alpha virt. eigenvalues --    1.23615   1.23732   1.23985   1.24292   1.24649
 Alpha virt. eigenvalues --    1.25155   1.25719   1.26587   1.27558   1.28221
 Alpha virt. eigenvalues --    1.28331   1.28912   1.29016   1.29631   1.29861
 Alpha virt. eigenvalues --    1.30382   1.30488   1.30785   1.30823   1.32065
 Alpha virt. eigenvalues --    1.32234   1.32502   1.32856   1.33285   1.33328
 Alpha virt. eigenvalues --    1.33539   1.33564   1.33688   1.33951   1.34058
 Alpha virt. eigenvalues --    1.34760   1.35476   1.35930   1.36420   1.36844
 Alpha virt. eigenvalues --    1.37340   1.38136   1.38248   1.39023   1.39352
 Alpha virt. eigenvalues --    1.40086   1.40342   1.41097   1.41193   1.41320
 Alpha virt. eigenvalues --    1.41680   1.42555   1.42667   1.42816   1.43050
 Alpha virt. eigenvalues --    1.43691   1.43935   1.44077   1.44249   1.44462
 Alpha virt. eigenvalues --    1.45163   1.45258   1.45359   1.46208   1.47898
 Alpha virt. eigenvalues --    1.48568   1.48691   1.48819   1.49033   1.49132
 Alpha virt. eigenvalues --    1.49275   1.49508   1.49648   1.49890   1.49978
 Alpha virt. eigenvalues --    1.50627   1.51497   1.51693   1.51700   1.51747
 Alpha virt. eigenvalues --    1.51920   1.51942   1.52094   1.52130   1.52190
 Alpha virt. eigenvalues --    1.52374   1.52458   1.52712   1.53009   1.53135
 Alpha virt. eigenvalues --    1.53268   1.53391   1.53570   1.54236   1.54362
 Alpha virt. eigenvalues --    1.54574   1.54617   1.54655   1.54800   1.54971
 Alpha virt. eigenvalues --    1.55049   1.55183   1.55307   1.55454   1.55825
 Alpha virt. eigenvalues --    1.55892   1.56263   1.56787   1.57059   1.57234
 Alpha virt. eigenvalues --    1.57510   1.57699   1.57722   1.57858   1.57921
 Alpha virt. eigenvalues --    1.58229   1.58414   1.58749   1.59014   1.59428
 Alpha virt. eigenvalues --    1.59559   1.59839   1.60723   1.60985   1.61189
 Alpha virt. eigenvalues --    1.61469   1.61592   1.61777   1.61846   1.62262
 Alpha virt. eigenvalues --    1.63311   1.63470   1.63679   1.63813   1.63965
 Alpha virt. eigenvalues --    1.64081   1.64176   1.64243   1.64448   1.64514
 Alpha virt. eigenvalues --    1.64764   1.64933   1.65056   1.65266   1.65323
 Alpha virt. eigenvalues --    1.65495   1.65519   1.65655   1.65851   1.65872
 Alpha virt. eigenvalues --    1.65990   1.66121   1.66204   1.66323   1.66425
 Alpha virt. eigenvalues --    1.66733   1.66882   1.67065   1.67371   1.67924
 Alpha virt. eigenvalues --    1.68125   1.68295   1.68360   1.68480   1.68596
 Alpha virt. eigenvalues --    1.68643   1.68771   1.68825   1.68874   1.68976
 Alpha virt. eigenvalues --    1.69082   1.69116   1.69186   1.69357   1.69422
 Alpha virt. eigenvalues --    1.69657   1.69741   1.69787   1.69852   1.69906
 Alpha virt. eigenvalues --    1.70241   1.70539   1.70795   1.71239   1.71371
 Alpha virt. eigenvalues --    1.71572   1.71904   1.72408   1.72832   1.72959
 Alpha virt. eigenvalues --    1.73486   1.73723   1.74119   1.74311   1.74677
 Alpha virt. eigenvalues --    1.74863   1.75077   1.75152   1.75283   1.75519
 Alpha virt. eigenvalues --    1.75641   1.75860   1.75882   1.75955   1.76017
 Alpha virt. eigenvalues --    1.76269   1.76293   1.76566   1.76748   1.76875
 Alpha virt. eigenvalues --    1.76950   1.77198   1.77408   1.77570   1.78383
 Alpha virt. eigenvalues --    1.78491   1.78579   1.78694   1.78967   1.79000
 Alpha virt. eigenvalues --    1.79163   1.79832   1.79960   1.80372   1.80504
 Alpha virt. eigenvalues --    1.80686   1.80781   1.81031   1.81512   1.82268
 Alpha virt. eigenvalues --    1.82539   1.82606   1.82674   1.82955   1.83217
 Alpha virt. eigenvalues --    1.83329   1.83481   1.83549   1.83688   1.83875
 Alpha virt. eigenvalues --    1.84198   1.84623   1.84919   1.85262   1.85978
 Alpha virt. eigenvalues --    1.86028   1.86226   1.86261   1.86668   1.86784
 Alpha virt. eigenvalues --    1.86934   1.86950   1.87191   1.87232   1.87348
 Alpha virt. eigenvalues --    1.87518   1.87602   1.87645   1.87885   1.88086
 Alpha virt. eigenvalues --    1.88293   1.88388   1.89062   1.89956   1.90139
 Alpha virt. eigenvalues --    1.90433   1.90533   1.90852   1.91522   1.91720
 Alpha virt. eigenvalues --    1.92887   1.93626   1.94623   1.94780   1.95168
 Alpha virt. eigenvalues --    1.95209   1.95454   1.95591   1.95762   1.95817
 Alpha virt. eigenvalues --    1.96348   1.96459   1.96984   1.97157   1.97341
 Alpha virt. eigenvalues --    1.97683   1.98186   1.98415   1.98580   1.98674
 Alpha virt. eigenvalues --    1.98797   1.99126   1.99506   1.99915   2.00061
 Alpha virt. eigenvalues --    2.00249   2.00410   2.00542   2.00750   2.01068
 Alpha virt. eigenvalues --    2.01413   2.01491   2.01758   2.01810   2.01883
 Alpha virt. eigenvalues --    2.02014   2.02161   2.02336   2.02449   2.02505
 Alpha virt. eigenvalues --    2.02831   2.02849   2.02976   2.03074   2.03262
 Alpha virt. eigenvalues --    2.03688   2.03810   2.03964   2.04081   2.04240
 Alpha virt. eigenvalues --    2.04414   2.04503   2.04807   2.04940   2.05147
 Alpha virt. eigenvalues --    2.05274   2.05431   2.05553   2.05697   2.05911
 Alpha virt. eigenvalues --    2.06080   2.06436   2.06733   2.06977   2.07232
 Alpha virt. eigenvalues --    2.07486   2.07590   2.07813   2.08245   2.08686
 Alpha virt. eigenvalues --    2.08822   2.09459   2.09580   2.09771   2.10061
 Alpha virt. eigenvalues --    2.10196   2.10730   2.10793   2.11062   2.11383
 Alpha virt. eigenvalues --    2.11412   2.11485   2.11579   2.11633   2.11786
 Alpha virt. eigenvalues --    2.11832   2.11934   2.12042   2.12308   2.12454
 Alpha virt. eigenvalues --    2.12639   2.12721   2.12919   2.13084   2.13352
 Alpha virt. eigenvalues --    2.13484   2.13646   2.13991   2.14496   2.15153
 Alpha virt. eigenvalues --    2.15420   2.15633   2.15827   2.16403   2.16793
 Alpha virt. eigenvalues --    2.16916   2.17078   2.17234   2.17410   2.17455
 Alpha virt. eigenvalues --    2.17753   2.17816   2.17958   2.18675   2.18769
 Alpha virt. eigenvalues --    2.18829   2.18935   2.19050   2.19164   2.19264
 Alpha virt. eigenvalues --    2.19337   2.19571   2.19746   2.20125   2.20423
 Alpha virt. eigenvalues --    2.20726   2.21184   2.21374   2.21544   2.21937
 Alpha virt. eigenvalues --    2.21976   2.22197   2.22483   2.23253   2.23384
 Alpha virt. eigenvalues --    2.23607   2.24033   2.24982   2.25284   2.25698
 Alpha virt. eigenvalues --    2.26444   2.27766   2.28380   2.28513   2.28908
 Alpha virt. eigenvalues --    2.29425   2.29525   2.29757   2.30036   2.31214
[...]
 Alpha virt. eigenvalues --    2.86042   2.86092   2.86230   2.86434   2.87398
 Alpha virt. eigenvalues --    2.87432   2.87735   2.88227   2.88377   2.88577
 Alpha virt. eigenvalues --    2.88767   2.88868   2.89313   2.89387   2.89819
 Alpha virt. eigenvalues --    2.89967   2.90118   2.90261   2.90478   2.90748
 Alpha virt. eigenvalues --    2.91405   2.92134   2.92643   2.93139   2.93290
 Alpha virt. eigenvalues --    2.93518   2.93638   2.94082   2.94356   2.94795
 Alpha virt. eigenvalues --    2.95653   2.95824   2.95982   2.96789   2.97218
 Alpha virt. eigenvalues --    2.97394   2.97585   2.97747   2.97832   2.98018
 Alpha virt. eigenvalues --    2.98134   2.98399   2.98847   2.99538   3.00549
 Alpha virt. eigenvalues --    3.00606   3.00916   3.01059   3.01385   3.01941
 Alpha virt. eigenvalues --    3.02222   3.03364   3.03503   3.03686   3.03800
 Alpha virt. eigenvalues --    3.04093   3.05073   3.05580   3.05686   3.05738
 Alpha virt. eigenvalues --    3.05817   3.05981   3.06108   3.06209   3.06396
 Alpha virt. eigenvalues --    3.06734   3.06896   3.07143   3.07202   3.07621
 Alpha virt. eigenvalues --    3.07914   3.08332   3.08581   3.08925   3.09118
 Alpha virt. eigenvalues --    3.09617   3.09641   3.09885   3.10272   3.11643
 Alpha virt. eigenvalues --    3.11747   3.12110   3.12546   3.13098   3.13635
 Alpha virt. eigenvalues --    3.13773   3.13891   3.14135   3.14336   3.14633
 Alpha virt. eigenvalues --    3.14879   3.15075   3.15545   3.15594   3.16721
 Alpha virt. eigenvalues --    3.16986   3.17140   3.17533   3.17617   3.17641
 Alpha virt. eigenvalues --    3.17696   3.17773   3.17823   3.18105   3.18113
 Alpha virt. eigenvalues --    3.19352   3.20733   3.20829   3.20858   3.20984
 Alpha virt. eigenvalues --    3.21252   3.21467   3.21887   3.21930   3.23972
 Alpha virt. eigenvalues --    3.24677   3.24738   3.25187   3.25368   3.26078
 Alpha virt. eigenvalues --    3.26256   3.26659   3.27233   3.27382   3.29354
 Alpha virt. eigenvalues --    3.29416   3.30250   3.31066   3.31473   3.32058
 Alpha virt. eigenvalues --    3.32490   3.33755   3.33831   3.34137   3.36056
 Alpha virt. eigenvalues --    3.36379   3.36717   3.37296   3.37746   3.38012
 Alpha virt. eigenvalues --    3.38038   3.38149   3.38163   3.38337   3.38437
 Alpha virt. eigenvalues --    3.38575   3.40202   3.41783   3.43148   3.44089
 Alpha virt. eigenvalues --    3.45161   3.45959   3.46095   3.46656   3.47157
 Alpha virt. eigenvalues --    3.47171   3.47458   3.47829   3.48807   3.48981
 Alpha virt. eigenvalues --    3.49419   3.49609   3.49803   3.50106   3.50618
 Alpha virt. eigenvalues --    3.51458   3.51621   3.51953   3.52256   3.52468
 Alpha virt. eigenvalues --    3.52665   3.53213   3.53416   3.53579   3.53806
 Alpha virt. eigenvalues --    3.54259   3.54419   3.55073   3.55940   3.55993
 Alpha virt. eigenvalues --    3.56535   3.59043   3.59203   3.59859   3.60733
 Alpha virt. eigenvalues --    3.60752   3.61207   3.61799   3.62694   3.63084
 Alpha virt. eigenvalues --    3.63426   3.63510   3.63913   3.64464   3.64580
 Alpha virt. eigenvalues --    3.64623   3.64928   3.65323   3.65904   3.66771
 Alpha virt. eigenvalues --    3.67332   3.68592   3.70005   3.70363   3.70399
 Alpha virt. eigenvalues --    3.70843   3.70906   3.70945   3.71376   3.71484
 Alpha virt. eigenvalues --    3.72773   3.73584   3.74196   3.74263   3.75261
 Alpha virt. eigenvalues --    3.75263   3.75650   3.75774   3.75785   3.76205
 Alpha virt. eigenvalues --    3.76617   3.77070   3.81901   3.83408   3.87684
 Alpha virt. eigenvalues --    3.88644   3.88679   3.88816   3.88842   3.89107
 Alpha virt. eigenvalues --    3.89139   3.89656   3.92145   3.92157   3.92527
 Alpha virt. eigenvalues --    3.92726   3.92752   3.93125   3.95206   4.01449
 Alpha virt. eigenvalues --    4.01574   4.01708   4.01914   4.02122   4.02344
 Alpha virt. eigenvalues --    4.03958   4.04164   4.06120   4.09178   4.10810
 Alpha virt. eigenvalues --    4.10820   4.11053   4.11191   4.11596   4.11641
 Alpha virt. eigenvalues --    4.11987   4.12568   4.13547   4.14159   4.14343
 Alpha virt. eigenvalues --    4.14880   4.16216   4.18096   4.18220   4.19162
 Alpha virt. eigenvalues --    4.21117   4.21143   4.21322   4.21375   4.21542
 Alpha virt. eigenvalues --    4.21628   4.21724   4.25184   4.25350   4.25512
 Alpha virt. eigenvalues --    4.25802   4.25859   4.25951   4.26031   4.26075
 Alpha virt. eigenvalues --    4.26409   4.26570   4.27101   4.27212   4.27513
 Alpha virt. eigenvalues --    4.28479   4.28746   4.29002   4.29180   4.31331
 Alpha virt. eigenvalues --    4.31638   4.31985   4.32680   4.33000   4.33026
 Alpha virt. eigenvalues --    4.33141   4.33480   4.33663   4.34624   4.35652
 Alpha virt. eigenvalues --    4.35701   4.36162   4.38108   4.46884   4.60115
 Alpha virt. eigenvalues --    4.65228   4.66486   4.69805   4.72917   4.86008
 Alpha virt. eigenvalues --    4.98675   4.99470   4.99584   4.99594   4.99630
 Alpha virt. eigenvalues --    4.99739   4.99782   4.99904   5.00032   5.00050
 Alpha virt. eigenvalues --    5.00147   5.09433   5.09454   5.09593   5.09635
 Alpha virt. eigenvalues --    5.09919   5.09933   5.10538   5.22498   5.22562
 Alpha virt. eigenvalues --    5.22638   5.22677   5.25527   5.30587   5.31581
 Alpha virt. eigenvalues --    5.33421   5.47631   5.47665   5.47812   5.47862
 Alpha virt. eigenvalues --    5.48108   5.48155   5.48322   5.56691   5.79745
 Alpha virt. eigenvalues --    5.97044   5.97062   5.97350   5.97473   5.97479
 Alpha virt. eigenvalues --    5.97482   5.97886   8.03049  17.59722  17.90029
 Alpha virt. eigenvalues --   17.94198  23.85205  23.88411  23.89067  23.89492
 Alpha virt. eigenvalues --   23.93663  23.93680  23.94077  23.95716  23.97876
 Alpha virt. eigenvalues --   24.03419  24.05596  24.12655  24.19650  24.23025
 Alpha virt. eigenvalues --   24.23143  24.27065  24.27086  24.27230  24.27259
 Alpha virt. eigenvalues --   24.27512  24.27551  24.30811  24.30848  24.30961
 Alpha virt. eigenvalues --   24.31221  24.31474  24.31495  24.31836  24.31870
 Alpha virt. eigenvalues --   24.33055  24.33618  24.33914  24.33991  24.34280
 Alpha virt. eigenvalues --   24.34309  24.34718  24.34754  24.34845  24.34890
 Alpha virt. eigenvalues --   24.35142  24.35291  24.36125  24.40758  24.41481
 Alpha virt. eigenvalues --   24.43216  24.45105  24.45248  24.45285  24.45417
 Alpha virt. eigenvalues --   24.45721  24.45800  24.45871  24.45924  24.46321
 Alpha virt. eigenvalues --   24.52451  24.52487  24.52876  24.53070  24.53075
 Alpha virt. eigenvalues --   24.53428  24.53688  24.54103  24.54677  24.54785
 Alpha virt. eigenvalues --   24.55096  24.59336  24.59352  24.59416  24.59456
 Alpha virt. eigenvalues --   24.59748  24.59770  24.59903  24.60164  24.60430
 Alpha virt. eigenvalues --   24.60646  24.86607  36.11368  36.16750  36.16789
 Alpha virt. eigenvalues --   36.17025  36.22676  36.35402  50.46821  50.53316
 Alpha virt. eigenvalues --   50.53334  50.53458  50.53496  50.53763  50.53823
 Alpha virt. eigenvalues --   50.62194 190.13012
          Condensed to atoms (all electrons):
 Mulliken charges:
               1
     1  N   -0.564714
     2  C    0.212169
     3  C   -0.127786
     4  C   -0.106864
     5  C   -0.003203
     6  C   -0.029616
     7  C   -0.126186
     8  C    0.079865
     9  C   -0.071379
    10  C   -0.133003
    11  C    0.198959
    12  C   -0.093107
    13  C   -0.072002
    14  C    0.084370
    15  C   -0.070216
    16  C   -0.091174
    17  C    0.198916
    18  C   -0.134702
    19  C   -0.077688
    20  H    0.123441
    21  H    0.105127
    22  C   -0.299835
    23  H    0.135145
    24  H    0.123096
    25  H    0.115597
    26  H    0.114279
    27  O   -0.401429
    28  H    0.113401
    29  H    0.113417
    30  H    0.117489
    31  H    0.115186
    32  O   -0.400795
    33  H    0.113605
    34  H    0.112934
    35  C    0.230027
    36  C    0.256404
    37  C   -0.335715
    38  S    0.375212
    39  C    0.029189
    40  C   -0.117597
    41  C   -0.066623
    42  C   -0.098908
    43  C   -0.054021
    44  C   -0.045011
    45  C    0.077076
    46  C   -0.218305
    47  C    0.530806
    48  O   -0.394178
    49  O   -0.367458
    50  N   -0.392336
    51  N   -0.410207
    52  H    0.105485
    53  H    0.101665
    54  H    0.135960
    55  H    0.151772
    56  H    0.137673
    57  C    0.088376
    58  H    0.268732
    59  N   -0.278505
    60  C    0.170150
    61  C    0.193806
    62  C   -0.167056
    63  C   -0.042278
    64  C   -0.039820
    65  C   -0.169963
    66  C   -0.038069
    67  C   -0.115977
    68  C    0.214013
    69  C   -0.119898
    70  C   -0.115356
    71  C    0.207316
    72  C   -0.119331
    73  C   -0.039372
    74  H    0.108606
    75  H    0.128062
    76  H    0.123520
    77  H    0.122064
    78  H    0.124121
    79  H    0.108458
    80  C   -0.110841
    81  C   -0.110583
    82  H    0.130617
    83  H    0.109053
    84  H    0.108859
    85  H    0.108826
    86  H    0.108857
    87  H    0.129913
    88  N   -0.564495
    89  C   -0.068225
    90  C    0.073952
    91  C   -0.067240
    92  C   -0.091645
    93  C    0.199885
    94  C   -0.133066
    95  H    0.113008
    96  H    0.113855
    97  H    0.110959
    98  O   -0.400380
    99  H    0.115086
   100  C   -0.074759
   101  C    0.080375
   102  C   -0.066738
   103  C   -0.091423
   104  C    0.198991
   105  C   -0.135226
   106  H    0.118700
   107  H    0.111338
   108  O   -0.400961
   109  H    0.115376
   110  C   -0.110495
   111  H    0.130263
   112  H    0.107272
   113  H    0.109627
   114  N   -0.566568
   115  C   -0.072030
   116  C    0.079092
   117  C   -0.070940
   118  C   -0.133448
   119  C    0.198626
   120  C   -0.093624
   121  H    0.113347
   122  H    0.115105
   123  H    0.113224
   124  O   -0.401574
   125  H    0.113863
   126  C   -0.077259
   127  C    0.086595
   128  C   -0.070715
   129  C   -0.091260
   130  C    0.198509
   131  C   -0.134375
   132  H    0.113358
   133  H    0.115652
   134  H    0.112231
   135  O   -0.401221
   136  H    0.114538
   137  C   -0.110443
   138  C   -0.110808
   139  H    0.130148
   140  H    0.108375
   141  H    0.108693
   142  H    0.108452
   143  H    0.109216
   144  H    0.130222
   145  H    0.112960
   146  C   -0.110669
   147  H    0.130001
   148  H    0.108245
   149  H    0.109066
   150  H    0.115064
   151  H    0.115810
 Sum of Mulliken charges =  -0.00000
 Mulliken charges with hydrogens summed into heavy atoms:
               1
     1  N   -0.564714
     2  C    0.212169
     3  C   -0.004344
     4  C   -0.001737
     5  C   -0.003203
     6  C    0.105529
     7  C   -0.003090
     8  C    0.079865
     9  C    0.044218
    10  C   -0.018724
    11  C    0.198959
    12  C    0.020294
    13  C    0.041414
    14  C    0.084370
    15  C    0.047272
    16  C    0.024011
    17  C    0.198916
    18  C   -0.021097
    19  C    0.035246
    22  C   -0.299835
    27  O   -0.401429
    32  O   -0.400795
    35  C    0.230027
    36  C    0.256404
    37  C   -0.335715
    38  S    0.375212
    39  C    0.029189
    40  C   -0.012113
    41  C    0.035042
    42  C   -0.098908
    43  C    0.081939
    44  C    0.106762
    45  C    0.214749
    46  C   -0.218305
    47  C    0.530806
    48  O   -0.394178
    49  O   -0.098725
    50  N   -0.392336
    51  N   -0.410207
    57  C    0.088376
    59  N   -0.278505
    60  C    0.170150
    61  C    0.193806
    62  C   -0.167056
    63  C    0.072785
    64  C    0.075990
    65  C   -0.169963
    66  C    0.070537
    67  C    0.012084
    68  C    0.214013
    69  C    0.003622
    70  C    0.006707
    71  C    0.207316
    72  C    0.004791
    73  C    0.069085
    80  C    0.237688
    81  C    0.237013
    88  N   -0.564495
    89  C    0.042734
    90  C    0.073952
    91  C    0.046616
    92  C    0.023441
    93  C    0.199885
    94  C   -0.020058
    98  O   -0.400380
   100  C    0.036579
   101  C    0.080375
   102  C    0.051963
   103  C    0.023953
   104  C    0.198991
   105  C   -0.022266
   108  O   -0.400961
   110  C    0.236667
   114  N   -0.566568
   115  C    0.041195
   116  C    0.079092
   117  C    0.044164
   118  C   -0.019585
   119  C    0.198626
   120  C    0.019724
   124  O   -0.401574
   126  C    0.034972
   127  C    0.086595
   128  C    0.044937
   129  C    0.023278
   130  C    0.198509
   131  C   -0.021017
   135  O   -0.401221
   137  C    0.236773
   138  C    0.237083
   146  C    0.236643
 Electronic spatial extent (au):  <R**2>=         153784.7273
 Charge=             -0.0000 electrons
 Dipole moment (field-independent basis, Debye):
    X=             -6.8416    Y=             -9.2773    Z=             -4.0358  Tot=             12.2133
 Quadrupole moment (field-independent basis, Debye-Ang):
   XX=           -465.0571   YY=           -517.5046   ZZ=           -484.8347
   XY=            -50.6854   XZ=              7.3152   YZ=              7.9266
 Traceless Quadrupole moment (field-independent basis, Debye-Ang):
   XX=             24.0751   YY=            -28.3725   ZZ=              4.2974
   XY=            -50.6854   XZ=              7.3152   YZ=              7.9266
 Octapole moment (field-independent basis, Debye-Ang**2):
  XXX=           -763.1169  YYY=           -581.2406  ZZZ=           -269.9080  XYY=           -293.1119
  XXY=           -139.6365  XXZ=            -65.6069  XZZ=             67.9436  YZZ=           -281.8644
  YYZ=             78.5113  XYZ=            -89.9117
 Hexadecapole moment (field-independent basis, Debye-Ang**3):
 XXXX=        -102898.7703 YYYY=         -73207.9701 ZZZZ=         -16321.5780 XXXY=          -6365.7865
 XXXZ=           -471.8106 YYYX=           1327.7612 YYYZ=           -722.2557 ZZZX=            366.6092
 ZZZY=           1037.5962 XXYY=         -29067.4991 XXZZ=         -19332.5024 YYZZ=         -14148.3953
 XXYZ=              6.0861 YYXZ=            -16.5935 ZZXY=           -201.6607
 N-N= 1.437012586553D+04 E-N=-3.867812632957D+04  KE= 4.243236167520D+03
 Unable to Open any file for archive entry.
 1\1\GINC-CN097\SP\RBHandHLYP TD-FC\6-311G(d,p)\C76H60N6O8S1\R2532\29-J
 ul-2021\0\\#N TD(NStates=10) BHandhlyp/6-311G(d,p)\\C25H20ON4\\0,1\N,0
 ,-7.909998,1.253969,0.142774\C,0,-6.574396,1.683095,0.071958\C,0,-6.22
 4716,3.020085,0.336904\C,0,-4.905762,3.432674,0.271831\C,0,-3.864764,2
 .547807,-0.070616\C,0,-4.223248,1.209454,-0.333163\C,0,-5.539841,0.789
 367,-0.261587\C,0,-8.380227,0.190077,-0.684328\C,0,-8.139772,0.186767,
 -2.058668\C,0,-8.603813,-0.849372,-2.868563\C,0,-9.342969,-1.893833,-2
 .307784\C,0,-9.597928,-1.88973,-0.930465\C,0,-9.11611,-0.867613,-0.130
 167\C,0,-8.839962,1.896087,1.014106\C,0,-8.530097,2.104237,2.367058\C,
 0,-9.438078,2.716094,3.214291\C,0,-10.693327,3.119209,2.739834\C,0,-11
 .016552,2.904664,1.398167\C,0,-10.088232,2.306347,0.54633\H,0,-6.99520
 9,3.733982,0.597669\H,0,-4.680164,4.468964,0.498303\C,0,-2.48484,2.999
 872,-0.162535\H,0,-3.447475,0.499094,-0.580148\H,0,-5.776883,-0.24727,
 -0.464487\H,0,-7.577801,0.999546,-2.503043\H,0,-8.394282,-0.819678,-3.
 929304\O,0,-9.85419,-2.949249,-3.004504\H,0,-10.167946,-2.708999,-0.50
 9386\H,0,-9.311809,-0.878149,0.935373\H,0,-7.568412,1.783124,2.749042\
 H,0,-9.205337,2.879494,4.259556\O,0,-11.517579,3.699883,3.657963\H,0,-
 11.976525,3.204572,0.999999\H,0,-10.343805,2.149938,-0.494819\C,0,-1.2
 82906,2.275618,-0.14562\C,0,-0.106285,3.094768,-0.254457\C,0,-0.377809
 ,4.465497,-0.378134\S,0,-2.112078,4.686524,-0.348304\C,0,0.510252,5.60
 3729,-0.504058\C,0,0.00905,6.90171,-0.752363\C,0,0.855298,7.984156,-0.
 867519\C,0,2.256297,7.847595,-0.747145\C,0,2.757878,6.550732,-0.496866
 \C,0,1.913568,5.464646,-0.378821\C,0,3.04922,9.041705,-0.889289\C,0,4.
 395302,9.263865,-0.849832\C,0,4.85372,10.666798,-1.041589\O,0,4.127155
 ,11.615023,-1.227708\O,0,6.198576,10.777918,-0.985469\N,0,-1.180821,0.
 924115,-0.077108\N,0,1.127368,2.531332,-0.177907\H,0,-1.057401,7.05995
 5,-0.863452\H,0,0.437961,8.966785,-1.060452\H,0,3.821422,6.390273,-0.3
 88936\H,0,2.321048,4.484156,-0.181458\H,0,2.480519,9.951504,-1.063693\
 C,0,5.380494,8.258469,-0.643924\H,0,6.401526,11.715065,-1.118375\N,0,6
 .178366,7.437573,-0.477745\C,0,0.017807,0.382125,-0.067225\C,0,1.21836
 7,1.22456,-0.043972\C,0,0.056625,-1.0994,-0.126094\C,0,0.95654,-1.7954
 24,-0.945936\C,0,2.863736,-0.298821,1.121652\C,0,2.584582,0.69389,0.17
 0991\C,0,3.670141,1.260211,-0.515054\C,0,4.970473,0.843827,-0.283801\C
 ,0,5.246095,-0.152584,0.671381\C,0,4.162712,-0.711566,1.373495\C,0,0.9
 19234,-3.177455,-1.048123\C,0,-0.022731,-3.92877,-0.323172\C,0,-0.9322
 93,-3.234188,0.494408\C,0,-0.893412,-1.851338,0.580366\H,0,3.481502,2.
 047183,-1.234934\H,0,5.785583,1.299183,-0.831124\H,0,4.345649,-1.47523
 1,2.118017\H,0,1.626466,-3.684753,-1.691361\H,0,-1.675201,-3.785834,1.
 056155\H,0,-1.616368,-1.332629,1.198018\C,0,-12.804301,4.12765,3.23589
 3\C,0,-9.635946,-3.002584,-4.406606\H,0,-13.281069,4.551523,4.118122\H
 ,0,-12.737793,4.895873,2.457164\H,0,-13.406274,3.289106,2.867632\H,0,-
 10.08023,-2.140066,-4.916237\H,0,-8.567796,-3.05471,-4.646325\H,0,-10.
 125273,-3.912775,-4.749452\N,0,6.563324,-0.570972,0.920009\C,0,7.32158
 7,-1.100438,-1.356308\C,0,7.553652,-0.523181,-0.107812\C,0,8.792325,0.
 090731,0.127426\C,0,9.765096,0.120671,-0.857495\C,0,9.521054,-0.447919
 ,-2.114088\C,0,8.288091,-1.056718,-2.360896\H,0,8.070818,-1.509849,-3.
 318708\H,0,8.986667,0.543822,1.092135\H,0,6.371857,-1.584646,-1.550533
 \O,0,10.539567,-0.35597,-3.01643\H,0,10.723176,0.595135,-0.683532\C,0,
 7.636035,-2.272704,2.322719\C,0,6.944038,-1.068002,2.202916\C,0,6.6558
 59,-0.341124,3.36828\C,0,7.036569,-0.818062,4.610975\C,0,7.73631,-2.02
 6623,4.724127\C,0,8.041139,-2.750216,3.569198\H,0,6.128406,0.602131,3.
 290872\H,0,7.86971,-2.842158,1.431142\O,0,8.073392,-2.402074,5.991536\
 H,0,6.818245,-0.261965,5.51458\C,0,10.345412,-0.90155,-4.312771\H,0,11
 .26756,-0.707872,-4.85825\H,0,10.170051,-1.98276,-4.272741\H,0,9.51026
 7,-0.417634,-4.831847\N,0,-0.054765,-5.332532,-0.413582\C,0,1.279144,-
 7.052159,-1.552673\C,0,0.357301,-5.996338,-1.607602\C,0,-0.1548,-5.623
 844,-2.850921\C,0,0.249857,-6.268547,-4.019704\C,0,1.164996,-7.321932,
 -3.952753\C,0,1.670346,-7.711439,-2.705973\H,0,2.381259,-8.528037,-2.6
 70234\H,0,-0.872866,-4.814547,-2.909635\H,0,1.684172,-7.354748,-0.5944
 39\O,0,1.623475,-8.02686,-5.027256\H,0,-0.165465,-5.948922,-4.965976\C
 ,0,-1.419636,-7.151827,0.502168\C,0,-0.491734,-6.127068,0.687818\C,0,0
 .021807,-5.915156,1.976704\C,0,-0.394468,-6.69571,3.041737\C,0,-1.3215
 05,-7.727857,2.846828\C,0,-1.828151,-7.956576,1.565756\H,0,-2.545492,-
 8.744915,1.381486\H,0,0.749583,-5.12893,2.137603\H,0,-1.823169,-7.3305
 94,-0.487291\O,0,-1.656472,-8.444559,3.95822\H,0,-0.002626,-6.536135,4
 .038974\C,0,1.150371,-7.674134,-6.318622\C,0,-2.597563,-9.499139,3.822
 964\H,0,1.647125,-8.350299,-7.01253\H,0,0.065496,-7.806402,-6.400696\H
 ,0,1.409607,-6.64027,-6.573849\H,0,-2.236195,-10.276247,3.139725\H,0,-
 3.567841,-9.13012,3.47157\H,0,-2.714414,-9.923285,4.818897\H,0,8.58122
 3,-3.685783,3.622832\C,0,8.785842,-3.617345,6.168906\H,0,8.94659,-3.71
 4229,7.241391\H,0,8.209166,-4.477954,5.811088\H,0,9.755735,-3.593587,5
 .659081\H,0,1.697901,-1.250975,-1.517365\H,0,2.056105,-0.752177,1.6825
 84\\Version=ES64L-G16RevC.01\State=1-A\HF=-4259.2264949\RMSD=3.287e-09
 \PG=C01 [X(C76H60N6O8S1)]\\@
 The archive entry for this job was punched.


 I FIND THAT THE THREE TRULY GREAT TIMES FOR THINKING THOUGHTS
 ARE WHEN I AM STANDING IN THE SHOWER, SITTING ON THE JOHN, OR WALKING.

                                    -- COLIN FLETCHER
 Job cpu time:       0 days 21 hours 27 minutes 28.3 seconds.
 Elapsed time:       0 days 21 hours 27 minutes 38.3 seconds.
 File lengths (MBytes):  RWF=  24296 Int=      0 D2E=      0 Chk=   1506 Scr=      1
 Normal termination of Gaussian 16 at Thu Jul 29 06:48:20 2021.
