 Entering Gaussian System, Link 0=g16
 Input=ES.com
 Output=BHANDLYP.out
 Initial command:
 /usr/local/apps/gaussian/g16-c01-avx2//g16/l1.exe "/tmp/r2532.910721.maple/Gau-39291.inp" -scrdir="/tmp/r2532.910721.maple/"
 Entering Link 1 = /usr/local/apps/gaussian/g16-c01-avx2//g16/l1.exe PID=     39292.
  
 Copyright (c) 1988-2019, Gaussian, Inc.  All Rights Reserved.
  
 This is part of the Gaussian(R) 16 program.  It is based on
 the Gaussian(R) 09 system (copyright 2009, Gaussian, Inc.),
 the Gaussian(R) 03 system (copyright 2003, Gaussian, Inc.),
 the Gaussian(R) 98 system (copyright 1998, Gaussian, Inc.),
 the Gaussian(R) 94 system (copyright 1995, Gaussian, Inc.),
 the Gaussian 92(TM) system (copyright 1992, Gaussian, Inc.),
 the Gaussian 90(TM) system (copyright 1990, Gaussian, Inc.),
 the Gaussian 88(TM) system (copyright 1988, Gaussian, Inc.),
 the Gaussian 86(TM) system (copyright 1986, Carnegie Mellon
 University), and the Gaussian 82(TM) system (copyright 1983,
 Carnegie Mellon University). Gaussian is a federally registered
 trademark of Gaussian, Inc.
  
 This software contains proprietary and confidential information,
 including trade secrets, belonging to Gaussian, Inc.
  
 This software is provided under written license and may be
 used, copied, transmitted, or stored only in accord with that
 written license.
  
 The following legend is applicable only to US Government
 contracts under FAR:
  
                    RESTRICTED RIGHTS LEGEND
  
 Use, reproduction and disclosure by the US Government is
 subject to restrictions as set forth in subparagraphs (a)
 and (c) of the Commercial Computer Software - Restricted
 Rights clause in FAR 52.227-19.
  
 Gaussian, Inc.
 340 Quinnipiac St., Bldg. 40, Wallingford CT 06492
  
  
 ---------------------------------------------------------------
 Warning -- This program may not be used in any manner that
 competes with the business of Gaussian, Inc. or will provide
 assistance to any competitor of Gaussian, Inc.  The licensee
 of this program is prohibited from giving any competitor of
 Gaussian, Inc. access to this program.  By using this program,
 the user acknowledges that Gaussian, Inc. is engaged in the
 business of creating and licensing software in the field of
 computational chemistry and represents and warrants to the
 licensee that it is not a competitor of Gaussian, Inc. and that
 it will not use this program in any manner prohibited above.
 ---------------------------------------------------------------
  

 Cite this work as:
 Gaussian 16, Revision C.01,
 M. J. Frisch, G. W. Trucks, H. B. Schlegel, G. E. Scuseria, 
 M. A. Robb, J. R. Cheeseman, G. Scalmani, V. Barone, 
 G. A. Petersson, H. Nakatsuji, X. Li, M. Caricato, A. V. Marenich, 
 J. Bloino, B. G. Janesko, R. Gomperts, B. Mennucci, H. P. Hratchian, 
 J. V. Ortiz, A. F. Izmaylov, J. L. Sonnenberg, D. Williams-Young, 
 F. Ding, F. Lipparini, F. Egidi, J. Goings, B. Peng, A. Petrone, 
 T. Henderson, D. Ranasinghe, V. G. Zakrzewski, J. Gao, N. Rega, 
 G. Zheng, W. Liang, M. Hada, M. Ehara, K. Toyota, R. Fukuda, 
 J. Hasegawa, M. Ishida, T. Nakajima, Y. Honda, O. Kitao, H. Nakai, 
 T. Vreven, K. Throssell, J. A. Montgomery, Jr., J. E. Peralta, 
 F. Ogliaro, M. J. Bearpark, J. J. Heyd, E. N. Brothers, K. N. Kudin, 
 V. N. Staroverov, T. A. Keith, R. Kobayashi, J. Normand, 
 K. Raghavachari, A. P. Rendell, J. C. Burant, S. S. Iyengar, 
 J. Tomasi, M. Cossi, J. M. Millam, M. Klene, C. Adamo, R. Cammi, 
 J. W. Ochterski, R. L. Martin, K. Morokuma, O. Farkas, 
 J. B. Foresman, and D. J. Fox, Gaussian, Inc., Wallingford CT, 2019.
 
 ******************************************
 Gaussian 16:  ES64L-G16RevC.01  3-Jul-2019
                27-Jul-2021 
 ******************************************
 %mem=8gb
 ---------------------------------------
 #N TD(NStates=10) BHandHLYP/6-311G(d,p)
 ---------------------------------------
 1/38=1,172=1/1;
 2/12=2,17=6,18=5,40=1/2;
 3/5=4,6=6,7=101,11=9,25=1,30=1,74=-3/1,2,3,8;
 4//1;
 5/5=2,38=5/2;
 8/6=1,10=2,108=10/1;
 9/41=10,42=1,70=2/14;
 6/7=2,8=2,9=2,10=2/1;
 99/5=1,9=1/99;
 ----
 Name
 ----
 Symbolic Z-matrix:
 Charge =  0 Multiplicity = 1
 6                    -7.85487   6.02406  -0.40349 
 8                    -6.9301    5.44558   0.50729 
 6                    -6.55144   4.15151   0.3146 
 6                    -7.01308   3.3287   -0.71603 
 6                    -6.54892   2.01784  -0.81965 
 6                    -5.63931   1.50177   0.10224 
 7                    -5.1954    0.14668   0.00462 
 6                    -3.83143  -0.16641   0.01612 
 6                    -3.37685  -1.42332   0.46319 
 6                    -2.02874  -1.73047   0.4692 
 6                    -1.05804  -0.80801   0.0353 
 6                    -1.51945   0.44626  -0.40313 
 6                    -2.86594   0.76331  -0.41674 
 1                    -3.1827    1.73189  -0.78053 
 1                    -0.81097   1.17865  -0.77416 
 6                     0.35539  -1.15676   0.04023 
 16                    1.59829   0.07195   0.05968 
 6                     2.88992  -1.12803   0.04186 
 6                     2.33922  -2.39936   0.04197 
 6                     0.9337   -2.4134    0.03945 
 1                     0.35165  -3.32419   0.00432 
 1                     2.95258  -3.28684   0.02924 
 6                     4.27463  -0.72531   0.02782 
 6                     4.66333   0.61167  -0.04198 
 6                     5.99809   1.0487   -0.05879 
 6                     7.08187   0.17841  -0.0089 
 6                     6.74383  -1.21949   0.06787 
 6                     5.36506  -1.67348   0.0861 
 7                     5.25742  -3.00001   0.1624 
 16                    6.77499  -3.61312   0.20635 
 7                     7.62756  -2.21463   0.13189 
 6                     8.47963   0.52844  -0.0263 
 6                     9.11572   1.73216  -0.0983 
 6                     8.43282   2.9769   -0.21418 
 7                     7.85974   3.97801  -0.29075 
 6                     10.61293   1.84396  -0.16783 
 8                     11.17017   2.79436  -0.63991 
 8                     11.32641   0.79556   0.32049 
 1                     10.76477   0.21745   0.84941 
 1                     9.11986  -0.34882  -0.00524 
 1                     6.16939   2.11421  -0.11888 
 1                     3.89673   1.37542  -0.09279 
 1                    -1.71748  -2.69481   0.85323 
 1                    -4.09183  -2.15159   0.82293 
 6                    -6.18248  -0.88051  -0.10949 
 6                    -7.24314  -0.94913   0.79286 
 6                    -8.22611  -1.93116   0.67429 
 6                    -8.14618  -2.87624  -0.35165 
 6                    -7.08086  -2.8135   -1.25979 
 6                    -6.11918  -1.82388  -1.14572 
 1                    -5.30664  -1.77684  -1.86104 
 1                    -7.03922  -3.54581  -2.05684 
 8                    -9.0421   -3.88202  -0.55586 
 6                    -10.14042  -4.00272   0.33748 
 1                    -9.80465  -4.18371   1.36466 
 1                    -10.77721  -3.11122   0.31483 
 1                    -10.71257  -4.86124  -0.00985 
 1                    -9.03614  -1.95162   1.39075 
 1                    -7.30743  -0.2231    1.59455 
 6                    -5.19181   2.33078   1.14162 
 6                    -5.6331    3.63935   1.24094 
 1                    -5.29209   4.28604   2.04019 
 1                    -4.49192   1.94131   1.87145 
 1                    -6.90644   1.38699  -1.62476 
 1                    -7.72131   3.69391  -1.44742 
 1                    -8.0099    7.04544  -0.06037 
 1                    -7.45583   6.04221  -1.42376 
 1                    -8.81234   5.49115  -0.39674 
 
 Stoichiometry    C34H24N4O4S2
 Framework group  C1[X(C34H24N4O4S2)]
 Deg. of freedom   198
 Full point group                 C1      NOp   1
 Largest Abelian subgroup         C1      NOp   1
 Largest concise Abelian subgroup C1      NOp   1
                         Standard orientation:                         
 ---------------------------------------------------------------------
 Center     Atomic      Atomic             Coordinates (Angstroms)
 Number     Number       Type             X           Y           Z
 ---------------------------------------------------------------------
      1          6           0        7.854865    6.024058    0.403487
      2          8           0        6.930098    5.445576   -0.507285
      3          6           0        6.551439    4.151509   -0.314600
      4          6           0        7.013084    3.328698    0.716028
      5          6           0        6.548922    2.017843    0.819648
      6          6           0        5.639310    1.501770   -0.102244
      7          7           0        5.195402    0.146676   -0.004616
      8          6           0        3.831426   -0.166409   -0.016121
      9          6           0        3.376849   -1.423317   -0.463194
     10          6           0        2.028745   -1.730473   -0.469197
     11          6           0        1.058040   -0.808007   -0.035304
     12          6           0        1.519446    0.446258    0.403126
     13          6           0        2.865936    0.763307    0.416735
     14          1           0        3.182701    1.731893    0.780526
     15          1           0        0.810972    1.178648    0.774162
     16          6           0       -0.355386   -1.156756   -0.040233
     17         16           0       -1.598290    0.071945   -0.059677
     18          6           0       -2.889919   -1.128032   -0.041858
     19          6           0       -2.339225   -2.399356   -0.041965
     20          6           0       -0.933701   -2.413395   -0.039446
     21          1           0       -0.351646   -3.324188   -0.004324
     22          1           0       -2.952581   -3.286838   -0.029235
     23          6           0       -4.274635   -0.725308   -0.027824
     24          6           0       -4.663327    0.611667    0.041976
     25          6           0       -5.998093    1.048696    0.058794
     26          6           0       -7.081872    0.178411    0.008897
     27          6           0       -6.743828   -1.219490   -0.067869
     28          6           0       -5.365060   -1.673476   -0.086099
     29          7           0       -5.257420   -3.000011   -0.162402
     30         16           0       -6.774991   -3.613123   -0.206354
     31          7           0       -7.627557   -2.214635   -0.131885
     32          6           0       -8.479634    0.528438    0.026300
     33          6           0       -9.115721    1.732156    0.098297
     34          6           0       -8.432816    2.976899    0.214181
     35          7           0       -7.859740    3.978005    0.290750
     36          6           0      -10.612934    1.843960    0.167833
     37          8           0      -11.170170    2.794364    0.639908
     38          8           0      -11.326407    0.795559   -0.320491
     39          1           0      -10.764773    0.217454   -0.849414
     40          1           0       -9.119864   -0.348824    0.005237
     41          1           0       -6.169390    2.114206    0.118876
     42          1           0       -3.896732    1.375424    0.092792
     43          1           0        1.717481   -2.694805   -0.853227
     44          1           0        4.091832   -2.151590   -0.822929
     45          6           0        6.182485   -0.880510    0.109488
     46          6           0        7.243138   -0.949132   -0.792860
     47          6           0        8.226109   -1.931155   -0.674294
     48          6           0        8.146178   -2.876241    0.351647
     49          6           0        7.080856   -2.813495    1.259788
     50          6           0        6.119176   -1.823881    1.145719
     51          1           0        5.306643   -1.776838    1.861042
     52          1           0        7.039224   -3.545811    2.056842
     53          8           0        9.042096   -3.882022    0.555863
     54          6           0       10.140418   -4.002717   -0.337475
     55          1           0        9.804647   -4.183713   -1.364656
     56          1           0       10.777211   -3.111220   -0.314833
     57          1           0       10.712574   -4.861240    0.009852
     58          1           0        9.036138   -1.951624   -1.390748
     59          1           0        7.307425   -0.223104   -1.594546
     60          6           0        5.191810    2.330782   -1.141623
     61          6           0        5.633098    3.639345   -1.240941
     62          1           0        5.292087    4.286042   -2.040189
     63          1           0        4.491923    1.941314   -1.871452
     64          1           0        6.906439    1.386992    1.624756
     65          1           0        7.721313    3.693910    1.447422
     66          1           0        8.009898    7.045443    0.060366
     67          1           0        7.455829    6.042205    1.423759
     68          1           0        8.812336    5.491153    0.396740
 ---------------------------------------------------------------------
 Rotational constants (GHZ):           0.1203711           0.0186880           0.0163501
 Standard basis: 6-311G(d,p) (5D, 7F)
 There are   996 symmetry adapted cartesian basis functions of A   symmetry.
 There are   952 symmetry adapted basis functions of A   symmetry.
   952 basis functions,  1628 primitive gaussians,   996 cartesian basis functions
   160 alpha electrons      160 beta electrons
       nuclear repulsion energy      4738.9108355456 Hartrees.
 NAtoms=   68 NActive=   68 NUniq=   68 SFac= 1.00D+00 NAtFMM=   60 NAOKFM=T Big=T
 Integral buffers will be    131072 words long.
 Regular integral format.
 Two-electron integral symmetry is turned on.
 One-electron integrals computed using PRISM.
 NBasis=   952 RedAO= T EigKep=  1.21D-04  NBF=   952
 NBsUse=   952 1.00D-06 EigRej= -1.00D+00 NBFU=   952
 ExpMin= 7.71D-02 ExpMax= 9.34D+04 ExpMxC= 3.17D+03 IAcc=3 IRadAn=         5 AccDes= 0.00D+00
 Harris functional with IExCor=  402 and IRadAn=       5 diagonalized for initial guess.
 HarFok:  IExCor=  402 AccDes= 0.00D+00 IRadAn=         5 IDoV= 1 UseB2=F ITyADJ=14
 ICtDFT=  3500011 ScaDFX=  1.000000  1.000000  1.000000  1.000000
 FoFCou: FMM=F IPFlag=           0 FMFlag=      100000 FMFlg1=        2001
         NFxFlg=           0 DoJE=T BraDBF=F KetDBF=T FulRan=T
         wScrn=  0.000000 ICntrl=       500 IOpCl=  0 I1Cent=   200000004 NGrid=           0
         NMat0=    1 NMatS0=      1 NMatT0=    0 NMatD0=    1 NMtDS0=    0 NMtDT0=    0
 Petite list used in FoFCou.
 Requested convergence on RMS density matrix=1.00D-08 within 128 cycles.
 Requested convergence on MAX density matrix=1.00D-06.
 Requested convergence on             energy=1.00D-06.
 No special actions if energy rises.
 Integral accuracy reduced to 1.0D-05 until final iterations.
 Initial convergence to 1.0D-05 achieved.  Increase integral accuracy.
 SCF Done:  E(RBHandHLYP) =  -2625.63207739     A.U. after   16 cycles
            NFock= 16  Conv=0.86D-08     -V/T= 2.0031
 DoSCS=F DFT=T ScalE2(SS,OS)=  1.000000  1.000000
 ExpMin= 7.71D-02 ExpMax= 9.34D+04 ExpMxC= 3.17D+03 IAcc=3 IRadAn=         5 AccDes= 0.00D+00
 HarFok:  IExCor=  205 AccDes= 0.00D+00 IRadAn=         5 IDoV=-2 UseB2=F ITyADJ=14
 ICtDFT= 12500011 ScaDFX=  1.000000  1.000000  1.000000  1.000000
 GSVD:  LWork=       -3120 too small for GESVD, short by       14300 words or       14300 for optimal perf.
 Range of M.O.s used for correlation:    53   952
 NBasis=   952 NAE=   160 NBE=   160 NFC=    52 NFV=     0
 NROrb=    900 NOA=   108 NOB=   108 NVA=   792 NVB=   792

 **** Warning!!: The largest alpha MO coefficient is  0.12434711D+02

 Orbital symmetries:
       Occupied  (A) (A) (A) (A) (A) (A) (A) (A) (A) (A) (A) (A)
                 (A) (A) (A) (A) (A) (A) (A) (A) (A) (A) (A) (A)
                 (A) (A) (A) (A) (A) (A) (A) (A) (A) (A) (A) (A)
                 (A) (A) (A) (A) (A) (A) (A) (A) (A) (A) (A) (A)
                 (A) (A) (A) (A) (A) (A) (A) (A) (A) (A) (A) (A)
                 (A) (A) (A) (A) (A) (A) (A) (A) (A) (A) (A) (A)
                 (A) (A) (A) (A) (A) (A) (A) (A) (A) (A) (A) (A)
                 (A) (A) (A) (A) (A) (A) (A) (A) (A) (A) (A) (A)
                 (A) (A) (A) (A) (A) (A) (A) (A) (A) (A) (A) (A)
                 (A) (A) (A) (A) (A) (A) (A) (A) (A) (A) (A) (A)
                 (A) (A) (A) (A) (A) (A) (A) (A) (A) (A) (A) (A)
                 (A) (A) (A) (A) (A) (A) (A) (A) (A) (A) (A) (A)
                 (A) (A) (A) (A) (A) (A) (A) (A) (A) (A) (A) (A)
                 (A) (A) (A) (A)
       Virtual   (A) (A) (A) (A) (A) (A) (A) (A) (A) (A) (A) (A)
                 (A) (A) (A) (A) (A) (A) (A) (A) (A) (A) (A) (A)
                 (A) (A) (A) (A) (A) (A) (A) (A) (A) (A) (A) (A)
                 (A) (A) (A) (A) (A) (A) (A) (A) (A) (A) (A) (A)
                 (A) (A) (A) (A) (A) (A) (A) (A) (A) (A) (A) (A)
                 (A) (A) (A) (A) (A) (A) (A) (A) (A) (A) (A) (A)
                 (A) (A) (A) (A) (A) (A) (A) (A) (A) (A) (A) (A)
                 (A) (A) (A) (A) (A) (A) (A) (A) (A) (A) (A) (A)
                 (A) (A) (A) (A) (A) (A) (A) (A) (A) (A) (A) (A)
                 (A) (A) (A) (A) (A) (A) (A) (A) (A) (A) (A) (A)
                 (A) (A) (A) (A) (A) (A) (A) (A) (A) (A) (A) (A)
                 (A) (A) (A) (A) (A) (A) (A) (A) (A) (A) (A) (A)
                 (A) (A) (A) (A) (A) (A) (A) (A) (A) (A) (A) (A)
                 (A) (A) (A) (A) (A) (A) (A) (A) (A) (A) (A) (A)
                 (A) (A) (A) (A) (A) (A) (A) (A) (A) (A) (A) (A)
                 (A) (A) (A) (A) (A) (A) (A) (A) (A) (A) (A) (A)
                 (A) (A) (A) (A) (A) (A) (A) (A) (A) (A) (A) (A)
                 (A) (A) (A) (A) (A) (A) (A) (A) (A) (A) (A) (A)
                 (A) (A) (A) (A) (A) (A) (A) (A) (A) (A) (A) (A)
                 (A) (A) (A) (A) (A) (A) (A) (A) (A) (A) (A) (A)
                 (A) (A) (A) (A) (A) (A) (A) (A) (A) (A) (A) (A)
                 (A) (A) (A) (A) (A) (A) (A) (A) (A) (A) (A) (A)
                 (A) (A) (A) (A) (A) (A) (A) (A) (A) (A) (A) (A)
                 (A) (A) (A) (A) (A) (A) (A) (A) (A) (A) (A) (A)
                 (A) (A) (A) (A) (A) (A) (A) (A) (A) (A) (A) (A)
                 (A) (A) (A) (A) (A) (A) (A) (A) (A) (A) (A) (A)
                 (A) (A) (A) (A) (A) (A) (A) (A) (A) (A) (A) (A)
                 (A) (A) (A) (A) (A) (A) (A) (A) (A) (A) (A) (A)
                 (A) (A) (A) (A) (A) (A) (A) (A) (A) (A) (A) (A)
                 (A) (A) (A) (A) (A) (A) (A) (A) (A) (A) (A) (A)
                 (A) (A) (A) (A) (A) (A) (A) (A) (A) (A) (A) (A)
                 (A) (A) (A) (A) (A) (A) (A) (A) (A) (A) (A) (A)
                 (A) (A) (A) (A) (A) (A) (A) (A) (A) (A) (A) (A)
                 (A) (A) (A) (A) (A) (A) (A) (A) (A) (A) (A) (A)
                 (A) (A) (A) (A) (A) (A) (A) (A) (A) (A) (A) (A)
                 (A) (A) (A) (A) (A) (A) (A) (A) (A) (A) (A) (A)
                 (A) (A) (A) (A) (A) (A) (A) (A) (A) (A) (A) (A)
                 (A) (A) (A) (A) (A) (A) (A) (A) (A) (A) (A) (A)
                 (A) (A) (A) (A) (A) (A) (A) (A) (A) (A) (A) (A)
                 (A) (A) (A) (A) (A) (A) (A) (A) (A) (A) (A) (A)
                 (A) (A) (A) (A) (A) (A) (A) (A) (A) (A) (A) (A)
                 (A) (A) (A) (A) (A) (A) (A) (A) (A) (A) (A) (A)
                 (A) (A) (A) (A) (A) (A) (A) (A) (A) (A) (A) (A)
                 (A) (A) (A) (A) (A) (A) (A) (A) (A) (A) (A) (A)
                 (A) (A) (A) (A) (A) (A) (A) (A) (A) (A) (A) (A)
                 (A) (A) (A) (A) (A) (A) (A) (A) (A) (A) (A) (A)
                 (A) (A) (A) (A) (A) (A) (A) (A) (A) (A) (A) (A)
                 (A) (A) (A) (A) (A) (A) (A) (A) (A) (A) (A) (A)
                 (A) (A) (A) (A) (A) (A) (A) (A) (A) (A) (A) (A)
                 (A) (A) (A) (A) (A) (A) (A) (A) (A) (A) (A) (A)
                 (A) (A) (A) (A) (A) (A) (A) (A) (A) (A) (A) (A)
                 (A) (A) (A) (A) (A) (A) (A) (A) (A) (A) (A) (A)
                 (A) (A) (A) (A) (A) (A) (A) (A) (A) (A) (A) (A)
                 (A) (A) (A) (A) (A) (A) (A) (A) (A) (A) (A) (A)
                 (A) (A) (A) (A) (A) (A) (A) (A) (A) (A) (A) (A)
                 (A) (A) (A) (A) (A) (A) (A) (A) (A) (A) (A) (A)
                 (A) (A) (A) (A) (A) (A) (A) (A) (A) (A) (A) (A)
                 (A) (A) (A) (A) (A) (A) (A) (A) (A) (A) (A) (A)
                 (A) (A) (A) (A) (A) (A) (A) (A) (A) (A) (A) (A)
                 (A) (A) (A) (A) (A) (A) (A) (A) (A) (A) (A) (A)
                 (A) (A) (A) (A) (A) (A) (A) (A) (A) (A) (A) (A)
                 (A) (A) (A) (A) (A) (A) (A) (A) (A) (A) (A) (A)
                 (A) (A) (A) (A) (A) (A) (A) (A) (A) (A) (A) (A)
                 (A) (A) (A) (A) (A) (A) (A) (A) (A) (A) (A) (A)
                 (A) (A) (A) (A) (A) (A) (A) (A) (A) (A) (A) (A)
                 (A) (A) (A) (A) (A) (A) (A) (A) (A) (A) (A) (A)
    40 initial guesses have been made.
 Convergence on wavefunction:    0.001000000000000
 Iteration     1 Dimension    40 NMult     0 NNew     40
 CISAX will form    40 AO SS matrices at one time.
 New state      4 was old state      6
 New state      5 was old state     10
 New state      6 was old state      4
 New state      7 was old state      5
 New state      8 was old state     12
 New state     10 was old state      7
 Iteration     2 Dimension    60 NMult    40 NNew     20
 New state      4 was old state      5
 New state      5 was old state      4
 New state      6 was old state      7
 New state      7 was old state      8
 New state      8 was old state      6
 Iteration     3 Dimension    80 NMult    60 NNew     20
 New state      9 was old state     10
 New state     10 was old state      9
 Iteration     4 Dimension   100 NMult    80 NNew     20
 New state      8 was old state      9
 New state      9 was old state      8
 Iteration     5 Dimension   120 NMult   100 NNew     20
 Iteration     6 Dimension   134 NMult   120 NNew     14
 Iteration     7 Dimension   144 NMult   134 NNew     10
 Iteration     8 Dimension   148 NMult   144 NNew      4
 Iteration     9 Dimension   152 NMult   148 NNew      4
 ***********************************************************************
 Excited states from <AA,BB:AA,BB> singles matrix:
 ***********************************************************************
 
 Ground to excited state transition densities written to RWF  633
 Ground to excited state transition electric dipole moments (Au):
       state          X           Y           Z        Dip. S.      Osc.
         1         4.4871     -0.4892     -0.0334     20.3748      1.1400
         2         0.7356     -0.8038     -0.0475      1.1895      0.0913
         3         2.5313     -0.2909     -0.0274      6.4929      0.5884
         4         0.8528      1.3088      0.0724      2.4454      0.2377
         5        -0.5017      0.2200      0.0303      0.3011      0.0299
         6        -0.0034      0.4469      0.1252      0.2154      0.0222
         7         0.0965      0.0954     -0.4413      0.2132      0.0222
         8         0.1112      0.9842      0.0066      0.9811      0.1066
         9        -0.0566      0.1377     -0.0685      0.0269      0.0030
        10         0.4267     -0.5751     -0.0391      0.5143      0.0581
 Ground to excited state transition velocity dipole moments (Au):
       state          X           Y           Z        Dip. S.      Osc.
         1        -0.3743      0.0395      0.0024      0.1417      1.1253
         2        -0.0896      0.0913      0.0058      0.0164      0.0949
         3        -0.3363      0.0418      0.0040      0.1148      0.5632
         4        -0.1274     -0.1891     -0.0100      0.0521      0.2382
         5         0.0778     -0.0326     -0.0053      0.0072      0.0320
         6        -0.0019     -0.0678     -0.0233      0.0051      0.0221
         7        -0.0174     -0.0107      0.0830      0.0073      0.0312
         8        -0.0126     -0.1408      0.0010      0.0200      0.0817
         9         0.0084     -0.0231      0.0127      0.0008      0.0031
        10        -0.0711      0.0960      0.0067      0.0143      0.0564
 Ground to excited state transition magnetic dipole moments (Au):
       state          X           Y           Z
         1        -0.0293      0.0641     -1.4311
         2         0.0247      0.0453     -0.8460
         3        -0.0629      0.0775     -1.9563
         4        -0.0900     -0.1015      1.1278
         5         0.0827     -0.0183      0.8648
         6        -0.0369      0.2334      0.2436
         7         0.0393     -0.9346     -1.1486
         8         0.0599     -0.1762      1.2282
         9         0.0018     -0.1475     -0.5707
        10         0.0710      0.0768     -1.5266
 Ground to excited state transition velocity quadrupole moments (Au):
       state          XX          YY          ZZ          XY          XZ          YZ
         1         2.8813      0.0178     -0.0335     -0.6084     -0.0456      0.0314
         2         4.0777      0.2407      0.0027     -0.9256     -0.0534      0.0002
         3         0.7756     -0.1790     -0.0418     -1.2683     -0.0939      0.0322
         4        -5.6080     -0.3797     -0.0310      2.2878      0.1521      0.0090
         5         0.1802      0.2435      0.0310      1.1060      0.0853     -0.0232
         6        -2.2845     -0.1852     -0.0341      0.6196     -0.2145     -0.0299
         7        -0.8183     -0.1525     -0.0144     -0.0056      0.8695      0.0226
         8         2.3727      1.0642      0.0371      2.0478      0.2014      0.0333
         9        -0.0732     -0.2931     -0.0022     -0.8282      0.0911     -0.0123
        10         3.1878      0.3970      0.0019     -1.4084     -0.0955      0.0115
 <0|del|b> * <b|rxdel|0> + <0|del|b> * <b|delr+rdel|0>
 Rotatory Strengths (R) in cgs (10**-40 erg-esu-cm/Gauss)
       state          XX          YY          ZZ    R(velocity)    E-M Angle
         1        -2.6170    -11.8158     98.8518     28.1397       88.94
         2        -3.8201     -5.4309     -8.9784     -6.0765       91.57
         3       -14.6430     19.7219     81.4325     28.8371       88.56
         4        33.5145     53.1489      7.3585     31.3406       85.71
         5       -16.6974     13.9932     14.3557      3.8839       88.08
         6      -115.2501     20.2814     -2.8954    -32.6214      151.68
         7      -173.0508   -217.2232      0.9251   -129.7830      132.77
         8       122.4279     -4.3338     -8.4318     36.5541       81.72
         9       -26.3932      6.8375      3.0351     -5.5069      103.69
        10        -6.3729    -13.8933    -12.5827    -10.9496       92.46
 1/2[<0|r|b>*<b|rxdel|0> + (<0|rxdel|b>*<b|r|0>)*]
 Rotatory Strengths (R) in cgs (10**-40 erg-esu-cm/Gauss)
       state          XX          YY          ZZ     R(length)
         1        92.9488     22.1721    -33.7783     27.1142
         2       -12.8242     25.7345    -28.4180     -5.1692
         3       112.6005     15.9452    -37.8916     30.2181
         4        54.2715     93.9187    -57.7695     30.1403
         5        29.3446      2.8422    -18.5555      4.5437
         6        -0.0887    -73.7631    -21.5714    -31.8077
         7        -2.6804     63.0778   -358.4805    -99.3610
         8        -4.7145    122.6064     -5.7006     37.3971
         9         0.0702     14.3586    -27.6603     -4.4105
        10       -21.4075     31.2436    -42.2407    -10.8015
  1/2[<0|del|b>*<b|r|0> + (<0|r|b>*<b|del|0>)*] (Au)
       state          X           Y           Z        Dip. S.   Osc.(frdel)
         1        -1.6796     -0.0193     -0.0001      1.6989      1.1326
         2        -0.0659     -0.0734     -0.0003      0.1396      0.0930
         3        -0.8512     -0.0122     -0.0001      0.8635      0.5756
         4        -0.1087     -0.2475     -0.0007      0.3569      0.2379
         5        -0.0391     -0.0072     -0.0002      0.0464      0.0309
         6         0.0000     -0.0303     -0.0029      0.0332      0.0221
         7        -0.0017     -0.0010     -0.0366      0.0393      0.0262
         8        -0.0014     -0.1385      0.0000      0.1399      0.0933
         9        -0.0005     -0.0032     -0.0009      0.0045      0.0030
        10        -0.0303     -0.0552     -0.0003      0.0858      0.0572

 Excitation energies and oscillator strengths:
 
 Excited State   1:      Singlet-A      2.2838 eV  542.89 nm  f=1.1400  <S**2>=0.000
     159 ->161         0.27012
     160 ->161         0.64087
 This state for optimization and/or second-order correction.
 Total Energy, E(TD-HF/TD-DFT) =  -2625.54815002    
 Copying the excited state density for this state as the 1-particle RhoCI density.
 
 Excited State   2:      Singlet-A      3.1347 eV  395.52 nm  f=0.0913  <S**2>=0.000
     157 ->161        -0.19643
     159 ->161         0.60997
     160 ->161        -0.27381
 
 Excited State   3:      Singlet-A      3.6990 eV  335.18 nm  f=0.5884  <S**2>=0.000
     159 ->162         0.29774
     160 ->162         0.49995
     160 ->163         0.35005
 
 Excited State   4:      Singlet-A      3.9678 eV  312.48 nm  f=0.2377  <S**2>=0.000
     151 ->161         0.13662
     154 ->161        -0.13516
     157 ->161         0.16241
     159 ->162        -0.19907
     159 ->163         0.12037
     160 ->162        -0.28410
     160 ->163         0.50077
 
 Excited State   5:      Singlet-A      4.0596 eV  305.41 nm  f=0.0299  <S**2>=0.000
     152 ->161        -0.21927
     154 ->161        -0.10810
     155 ->161         0.15911
     157 ->161         0.54545
     159 ->161         0.19689
     160 ->163        -0.20340
 
 Excited State   6:      Singlet-A      4.2118 eV  294.37 nm  f=0.0222  <S**2>=0.000
     153 ->161         0.17925
     154 ->161         0.53551
     156 ->161        -0.26489
     157 ->161         0.14060
     160 ->164        -0.18811
 
 Excited State   7:      Singlet-A      4.2478 eV  291.88 nm  f=0.0222  <S**2>=0.000
     153 ->161         0.13230
     154 ->161         0.19461
     159 ->164        -0.13015
     160 ->164         0.60865
 
 Excited State   8:      Singlet-A      4.4364 eV  279.47 nm  f=0.1066  <S**2>=0.000
     151 ->161         0.59703
     152 ->161         0.17443
     159 ->163         0.12741
     160 ->165        -0.10794
 
 Excited State   9:      Singlet-A      4.4927 eV  275.97 nm  f=0.0030  <S**2>=0.000
     158 ->161         0.68609
 
 Excited State  10:      Singlet-A      4.6070 eV  269.12 nm  f=0.0581  <S**2>=0.000
     157 ->162        -0.22248
     159 ->162         0.50123
     159 ->163         0.16800
     160 ->162        -0.37601
 SavETr:  write IOETrn=   770 NScale= 10 NData=  16 NLR=1 NState=   10 LETran=     190.

 **********************************************************************

            Population analysis using the SCF Density.

 **********************************************************************

 Orbital symmetries:
       Occupied  (A) (A) (A) (A) (A) (A) (A) (A) (A) (A) (A) (A)
                 (A) (A) (A) (A) (A) (A) (A) (A) (A) (A) (A) (A)
                 (A) (A) (A) (A) (A) (A) (A) (A) (A) (A) (A) (A)
                 (A) (A) (A) (A) (A) (A) (A) (A) (A) (A) (A) (A)
                 (A) (A) (A) (A) (A) (A) (A) (A) (A) (A) (A) (A)
                 (A) (A) (A) (A) (A) (A) (A) (A) (A) (A) (A) (A)
                 (A) (A) (A) (A) (A) (A) (A) (A) (A) (A) (A) (A)
                 (A) (A) (A) (A) (A) (A) (A) (A) (A) (A) (A) (A)
                 (A) (A) (A) (A) (A) (A) (A) (A) (A) (A) (A) (A)
                 (A) (A) (A) (A) (A) (A) (A) (A) (A) (A) (A) (A)
                 (A) (A) (A) (A) (A) (A) (A) (A) (A) (A) (A) (A)
                 (A) (A) (A) (A) (A) (A) (A) (A) (A) (A) (A) (A)
                 (A) (A) (A) (A) (A) (A) (A) (A) (A) (A) (A) (A)
                 (A) (A) (A) (A)
       Virtual   (A) (A) (A) (A) (A) (A) (A) (A) (A) (A) (A) (A)
                 (A) (A) (A) (A) (A) (A) (A) (A) (A) (A) (A) (A)
                 (A) (A) (A) (A) (A) (A) (A) (A) (A) (A) (A) (A)
                 (A) (A) (A) (A) (A) (A) (A) (A) (A) (A) (A) (A)
                 (A) (A) (A) (A) (A) (A) (A) (A) (A) (A) (A) (A)
                 (A) (A) (A) (A) (A) (A) (A) (A) (A) (A) (A) (A)
                 (A) (A) (A) (A) (A) (A) (A) (A) (A) (A) (A) (A)
                 (A) (A) (A) (A) (A) (A) (A) (A) (A) (A) (A) (A)
                 (A) (A) (A) (A) (A) (A) (A) (A) (A) (A) (A) (A)
                 (A) (A) (A) (A) (A) (A) (A) (A) (A) (A) (A) (A)
                 (A) (A) (A) (A) (A) (A) (A) (A) (A) (A) (A) (A)
                 (A) (A) (A) (A) (A) (A) (A) (A) (A) (A) (A) (A)
                 (A) (A) (A) (A) (A) (A) (A) (A) (A) (A) (A) (A)
                 (A) (A) (A) (A) (A) (A) (A) (A) (A) (A) (A) (A)
                 (A) (A) (A) (A) (A) (A) (A) (A) (A) (A) (A) (A)
                 (A) (A) (A) (A) (A) (A) (A) (A) (A) (A) (A) (A)
                 (A) (A) (A) (A) (A) (A) (A) (A) (A) (A) (A) (A)
                 (A) (A) (A) (A) (A) (A) (A) (A) (A) (A) (A) (A)
                 (A) (A) (A) (A) (A) (A) (A) (A) (A) (A) (A) (A)
                 (A) (A) (A) (A) (A) (A) (A) (A) (A) (A) (A) (A)
                 (A) (A) (A) (A) (A) (A) (A) (A) (A) (A) (A) (A)
                 (A) (A) (A) (A) (A) (A) (A) (A) (A) (A) (A) (A)
                 (A) (A) (A) (A) (A) (A) (A) (A) (A) (A) (A) (A)
                 (A) (A) (A) (A) (A) (A) (A) (A) (A) (A) (A) (A)
                 (A) (A) (A) (A) (A) (A) (A) (A) (A) (A) (A) (A)
                 (A) (A) (A) (A) (A) (A) (A) (A) (A) (A) (A) (A)
                 (A) (A) (A) (A) (A) (A) (A) (A) (A) (A) (A) (A)
                 (A) (A) (A) (A) (A) (A) (A) (A) (A) (A) (A) (A)
                 (A) (A) (A) (A) (A) (A) (A) (A) (A) (A) (A) (A)
                 (A) (A) (A) (A) (A) (A) (A) (A) (A) (A) (A) (A)
                 (A) (A) (A) (A) (A) (A) (A) (A) (A) (A) (A) (A)
                 (A) (A) (A) (A) (A) (A) (A) (A) (A) (A) (A) (A)
                 (A) (A) (A) (A) (A) (A) (A) (A) (A) (A) (A) (A)
                 (A) (A) (A) (A) (A) (A) (A) (A) (A) (A) (A) (A)
                 (A) (A) (A) (A) (A) (A) (A) (A) (A) (A) (A) (A)
                 (A) (A) (A) (A) (A) (A) (A) (A) (A) (A) (A) (A)
                 (A) (A) (A) (A) (A) (A) (A) (A) (A) (A) (A) (A)
                 (A) (A) (A) (A) (A) (A) (A) (A) (A) (A) (A) (A)
                 (A) (A) (A) (A) (A) (A) (A) (A) (A) (A) (A) (A)
                 (A) (A) (A) (A) (A) (A) (A) (A) (A) (A) (A) (A)
                 (A) (A) (A) (A) (A) (A) (A) (A) (A) (A) (A) (A)
                 (A) (A) (A) (A) (A) (A) (A) (A) (A) (A) (A) (A)
                 (A) (A) (A) (A) (A) (A) (A) (A) (A) (A) (A) (A)
                 (A) (A) (A) (A) (A) (A) (A) (A) (A) (A) (A) (A)
                 (A) (A) (A) (A) (A) (A) (A) (A) (A) (A) (A) (A)
                 (A) (A) (A) (A) (A) (A) (A) (A) (A) (A) (A) (A)
                 (A) (A) (A) (A) (A) (A) (A) (A) (A) (A) (A) (A)
                 (A) (A) (A) (A) (A) (A) (A) (A) (A) (A) (A) (A)
                 (A) (A) (A) (A) (A) (A) (A) (A) (A) (A) (A) (A)
                 (A) (A) (A) (A) (A) (A) (A) (A) (A) (A) (A) (A)
                 (A) (A) (A) (A) (A) (A) (A) (A) (A) (A) (A) (A)
                 (A) (A) (A) (A) (A) (A) (A) (A) (A) (A) (A) (A)
                 (A) (A) (A) (A) (A) (A) (A) (A) (A) (A) (A) (A)
                 (A) (A) (A) (A) (A) (A) (A) (A) (A) (A) (A) (A)
                 (A) (A) (A) (A) (A) (A) (A) (A) (A) (A) (A) (A)
                 (A) (A) (A) (A) (A) (A) (A) (A) (A) (A) (A) (A)
                 (A) (A) (A) (A) (A) (A) (A) (A) (A) (A) (A) (A)
                 (A) (A) (A) (A) (A) (A) (A) (A) (A) (A) (A) (A)
                 (A) (A) (A) (A) (A) (A) (A) (A) (A) (A) (A) (A)
                 (A) (A) (A) (A) (A) (A) (A) (A) (A) (A) (A) (A)
                 (A) (A) (A) (A) (A) (A) (A) (A) (A) (A) (A) (A)
                 (A) (A) (A) (A) (A) (A) (A) (A) (A) (A) (A) (A)
                 (A) (A) (A) (A) (A) (A) (A) (A) (A) (A) (A) (A)
                 (A) (A) (A) (A) (A) (A) (A) (A) (A) (A) (A) (A)
                 (A) (A) (A) (A) (A) (A) (A) (A) (A) (A) (A) (A)
                 (A) (A) (A) (A) (A) (A) (A) (A) (A) (A) (A) (A)
 The electronic state is 1-A.
 Alpha  occ. eigenvalues --  -90.15569 -90.08172 -19.72839 -19.71202 -19.71111
 Alpha  occ. eigenvalues --  -19.66610 -14.86099 -14.85770 -14.83481 -14.80539
 Alpha  occ. eigenvalues --  -10.73902 -10.67010 -10.66929 -10.65968 -10.65894
 Alpha  occ. eigenvalues --  -10.65433 -10.65303 -10.65227 -10.64779 -10.64645
 Alpha  occ. eigenvalues --  -10.64548 -10.64544 -10.63864 -10.63494 -10.63326
 Alpha  occ. eigenvalues --  -10.63273 -10.63143 -10.63124 -10.62050 -10.61050
 Alpha  occ. eigenvalues --  -10.60762 -10.60352 -10.60319 -10.60021 -10.60005
 Alpha  occ. eigenvalues --  -10.59983 -10.59961 -10.59919 -10.59752 -10.59678
 Alpha  occ. eigenvalues --  -10.59391 -10.59387 -10.59358 -10.59305  -8.43914
 Alpha  occ. eigenvalues --   -8.36952  -6.29739  -6.29322  -6.29123  -6.22723
 Alpha  occ. eigenvalues --   -6.22456  -6.22167  -1.25352  -1.21357  -1.21271
 Alpha  occ. eigenvalues --   -1.17584  -1.16828  -1.10412  -1.04624  -1.04287
 Alpha  occ. eigenvalues --   -1.02783  -1.00857  -0.98977  -0.98873  -0.96977
 Alpha  occ. eigenvalues --   -0.96099  -0.91480  -0.89667  -0.89128  -0.88426
 Alpha  occ. eigenvalues --   -0.87573  -0.87444  -0.87066  -0.85629  -0.85123
 Alpha  occ. eigenvalues --   -0.83316  -0.81154  -0.80213  -0.78623  -0.75955
 Alpha  occ. eigenvalues --   -0.73778  -0.73319  -0.72917  -0.72158  -0.71900
 Alpha  occ. eigenvalues --   -0.71633  -0.70431  -0.69556  -0.67551  -0.66878
 Alpha  occ. eigenvalues --   -0.65536  -0.64690  -0.63209  -0.63071  -0.61872
 Alpha  occ. eigenvalues --   -0.61470  -0.60545  -0.60123  -0.59553  -0.58425
 Alpha  occ. eigenvalues --   -0.58163  -0.56880  -0.55678  -0.55582  -0.55016
 Alpha  occ. eigenvalues --   -0.54784  -0.54467  -0.54004  -0.53573  -0.53525
 Alpha  occ. eigenvalues --   -0.53306  -0.53195  -0.52182  -0.51127  -0.51083
 Alpha  occ. eigenvalues --   -0.50738  -0.50724  -0.50396  -0.49512  -0.49234
 Alpha  occ. eigenvalues --   -0.48900  -0.48331  -0.47647  -0.47295  -0.46923
 Alpha  occ. eigenvalues --   -0.46767  -0.46216  -0.46004  -0.45763  -0.45588
 Alpha  occ. eigenvalues --   -0.45201  -0.44967  -0.44857  -0.44476  -0.43874
 Alpha  occ. eigenvalues --   -0.43182  -0.42841  -0.41978  -0.41348  -0.40879
 Alpha  occ. eigenvalues --   -0.40616  -0.40314  -0.40195  -0.40059  -0.39633
 Alpha  occ. eigenvalues --   -0.39503  -0.39086  -0.37180  -0.36154  -0.35863
 Alpha  occ. eigenvalues --   -0.32993  -0.32597  -0.31686  -0.31297  -0.30931
 Alpha  occ. eigenvalues --   -0.30658  -0.29129  -0.28559  -0.25531  -0.22155
 Alpha virt. eigenvalues --   -0.09778  -0.04219  -0.02194   0.00623   0.02489
 Alpha virt. eigenvalues --    0.02659   0.02961   0.03098   0.03224   0.03895
 Alpha virt. eigenvalues --    0.05635   0.05759   0.06318   0.06772   0.06987
 Alpha virt. eigenvalues --    0.07354   0.07577   0.07921   0.08427   0.08725
 Alpha virt. eigenvalues --    0.08935   0.09325   0.10180   0.10511   0.10909
 Alpha virt. eigenvalues --    0.11130   0.11717   0.12001   0.13299   0.13476
 Alpha virt. eigenvalues --    0.13612   0.14092   0.14258   0.14296   0.14416
 Alpha virt. eigenvalues --    0.15026   0.16024   0.16556   0.16587   0.17246
 Alpha virt. eigenvalues --    0.17286   0.17722   0.18061   0.18563   0.18989
 Alpha virt. eigenvalues --    0.19245   0.19839   0.20241   0.20367   0.21878
 Alpha virt. eigenvalues --    0.22419   0.22740   0.22982   0.23239   0.23583
 Alpha virt. eigenvalues --    0.24669   0.25150   0.25870   0.26058   0.26448
 Alpha virt. eigenvalues --    0.27401   0.27609   0.28384   0.28901   0.29344
 Alpha virt. eigenvalues --    0.29412   0.30071   0.30624   0.31179   0.32073
 Alpha virt. eigenvalues --    0.32795   0.33390   0.33614   0.33954   0.34879
 Alpha virt. eigenvalues --    0.34936   0.35047   0.35738   0.35889   0.36290
 Alpha virt. eigenvalues --    0.36410   0.36981   0.37064   0.37922   0.38320
 Alpha virt. eigenvalues --    0.38536   0.39059   0.39619   0.40258   0.40569
 Alpha virt. eigenvalues --    0.41537   0.41720   0.41825   0.42121   0.42273
 Alpha virt. eigenvalues --    0.42726   0.43150   0.43320   0.43446   0.43797
 Alpha virt. eigenvalues --    0.43859   0.44179   0.44557   0.44702   0.45157
 Alpha virt. eigenvalues --    0.45364   0.45540   0.45807   0.46057   0.46248
 Alpha virt. eigenvalues --    0.46384   0.46726   0.46991   0.47204   0.47411
 Alpha virt. eigenvalues --    0.47700   0.47846   0.48274   0.48506   0.49067
 Alpha virt. eigenvalues --    0.49254   0.49737   0.49864   0.49921   0.50303
 Alpha virt. eigenvalues --    0.50553   0.50615   0.51410   0.51965   0.52158
 Alpha virt. eigenvalues --    0.52461   0.52759   0.53004   0.53248   0.53845
 Alpha virt. eigenvalues --    0.54233   0.54525   0.54896   0.55297   0.56036
 Alpha virt. eigenvalues --    0.56085   0.56277   0.56748   0.57062   0.57285
 Alpha virt. eigenvalues --    0.58122   0.58282   0.58359   0.58677   0.59247
 Alpha virt. eigenvalues --    0.59653   0.60315   0.60695   0.60828   0.61153
 Alpha virt. eigenvalues --    0.61616   0.62111   0.62343   0.62484   0.62764
 Alpha virt. eigenvalues --    0.63258   0.63651   0.64100   0.64197   0.65143
 Alpha virt. eigenvalues --    0.65252   0.65500   0.65752   0.66114   0.66191
 Alpha virt. eigenvalues --    0.66457   0.66724   0.67064   0.67346   0.67481
 Alpha virt. eigenvalues --    0.67566   0.67924   0.67978   0.68065   0.68691
 Alpha virt. eigenvalues --    0.69132   0.69652   0.70032   0.70122   0.70647
 Alpha virt. eigenvalues --    0.70675   0.71176   0.71531   0.71793   0.72127
 Alpha virt. eigenvalues --    0.72667   0.72820   0.73319   0.73604   0.73973
 Alpha virt. eigenvalues --    0.74145   0.75100   0.75420   0.75864   0.76083
 Alpha virt. eigenvalues --    0.76559   0.76956   0.77514   0.77709   0.77909
 Alpha virt. eigenvalues --    0.78678   0.79432   0.79966   0.80901   0.81062
 Alpha virt. eigenvalues --    0.81960   0.82755   0.83519   0.83581   0.84502
 Alpha virt. eigenvalues --    0.85211   0.85376   0.85512   0.85770   0.86010
 Alpha virt. eigenvalues --    0.86454   0.86703   0.86959   0.87034   0.87691
 Alpha virt. eigenvalues --    0.88530   0.88629   0.88938   0.89087   0.89788
 Alpha virt. eigenvalues --    0.90076   0.90163   0.90449   0.91453   0.91803
 Alpha virt. eigenvalues --    0.92065   0.92289   0.92437   0.93485   0.93552
 Alpha virt. eigenvalues --    0.93924   0.94599   0.94844   0.94867   0.95529
 Alpha virt. eigenvalues --    0.95753   0.96331   0.96666   0.97045   0.97543
 Alpha virt. eigenvalues --    0.97864   0.98788   0.99064   0.99846   1.00412
 Alpha virt. eigenvalues --    1.01090   1.01890   1.02291   1.02457   1.02737
 Alpha virt. eigenvalues --    1.02981   1.03443   1.03723   1.04439   1.04533
 Alpha virt. eigenvalues --    1.04923   1.05519   1.06160   1.06662   1.07149
 Alpha virt. eigenvalues --    1.07553   1.08344   1.08689   1.08918   1.09583
 Alpha virt. eigenvalues --    1.09907   1.10123   1.10316   1.11107   1.11440
 Alpha virt. eigenvalues --    1.11597   1.11906   1.12303   1.12816   1.13937
 Alpha virt. eigenvalues --    1.14498   1.14763   1.14862   1.15162   1.15581
 Alpha virt. eigenvalues --    1.16080   1.16636   1.16859   1.17289   1.17926
 Alpha virt. eigenvalues --    1.18626   1.19399   1.19918   1.20727   1.21074
 Alpha virt. eigenvalues --    1.21682   1.22342   1.22375   1.23594   1.23982
 Alpha virt. eigenvalues --    1.24391   1.24538   1.25444   1.26224   1.27507
 Alpha virt. eigenvalues --    1.28527   1.29054   1.30053   1.31209   1.32420
 Alpha virt. eigenvalues --    1.32805   1.32973   1.33781   1.34879   1.35582
 Alpha virt. eigenvalues --    1.36559   1.37231   1.37921   1.38845   1.40202
 Alpha virt. eigenvalues --    1.40467   1.41517   1.42861   1.43848   1.43945
 Alpha virt. eigenvalues --    1.44277   1.45382   1.46842   1.47387   1.47555
 Alpha virt. eigenvalues --    1.48206   1.48655   1.50716   1.51170   1.51307
 Alpha virt. eigenvalues --    1.51534   1.51618   1.51935   1.52326   1.52942
 Alpha virt. eigenvalues --    1.54086   1.54162   1.54563   1.54902   1.55152
 Alpha virt. eigenvalues --    1.55538   1.55911   1.56157   1.56476   1.56966
 Alpha virt. eigenvalues --    1.56980   1.57405   1.58179   1.58711   1.59626
 Alpha virt. eigenvalues --    1.60402   1.61224   1.61473   1.61490   1.62674
 Alpha virt. eigenvalues --    1.63045   1.63205   1.63714   1.64373   1.64671
 Alpha virt. eigenvalues --    1.65209   1.65436   1.65802   1.66466   1.66646
 Alpha virt. eigenvalues --    1.67356   1.67661   1.67944   1.68153   1.68331
 Alpha virt. eigenvalues --    1.68482   1.68732   1.68751   1.69645   1.69875
 Alpha virt. eigenvalues --    1.70308   1.70718   1.71366   1.72161   1.73299
 Alpha virt. eigenvalues --    1.74245   1.74873   1.75355   1.75398   1.76141
 Alpha virt. eigenvalues --    1.76345   1.76612   1.77297   1.77621   1.77802
 Alpha virt. eigenvalues --    1.78105   1.78750   1.78802   1.80017   1.81036
 Alpha virt. eigenvalues --    1.81220   1.81910   1.82314   1.82425   1.83103
 Alpha virt. eigenvalues --    1.83242   1.83420   1.84385   1.85375   1.85771
 Alpha virt. eigenvalues --    1.86136   1.86293   1.86638   1.86905   1.87286
 Alpha virt. eigenvalues --    1.87395   1.87959   1.88999   1.90467   1.91167
 Alpha virt. eigenvalues --    1.91490   1.91948   1.93889   1.94183   1.94479
 Alpha virt. eigenvalues --    1.94586   1.95806   1.96038   1.96600   1.97457
 Alpha virt. eigenvalues --    1.97738   1.99109   1.99263   1.99768   1.99901
 Alpha virt. eigenvalues --    2.00075   2.00447   2.01227   2.01709   2.02007
 Alpha virt. eigenvalues --    2.02407   2.03221   2.03291   2.03404   2.04182
 Alpha virt. eigenvalues --    2.04457   2.04958   2.05885   2.06403   2.07637
 Alpha virt. eigenvalues --    2.07935   2.08425   2.09394   2.09921   2.10116
 Alpha virt. eigenvalues --    2.10677   2.10996   2.11236   2.11635   2.11707
 Alpha virt. eigenvalues --    2.12462   2.13178   2.13420   2.13903   2.14921
 Alpha virt. eigenvalues --    2.15511   2.16257   2.16821   2.16921   2.17235
 Alpha virt. eigenvalues --    2.18166   2.18347   2.18914   2.19226   2.19872
 Alpha virt. eigenvalues --    2.20890   2.21171   2.21561   2.22275   2.22420
 Alpha virt. eigenvalues --    2.23336   2.23935   2.25285   2.26018   2.28093
 Alpha virt. eigenvalues --    2.28768   2.29414   2.30015   2.30493   2.32336
 Alpha virt. eigenvalues --    2.32682   2.33212   2.34721   2.36927   2.37944
 Alpha virt. eigenvalues --    2.38457   2.38574   2.40445   2.40907   2.41779
 Alpha virt. eigenvalues --    2.43393   2.43853   2.44065   2.44110   2.44588
 Alpha virt. eigenvalues --    2.44880   2.45883   2.46084   2.46321   2.47115
 Alpha virt. eigenvalues --    2.48142   2.48969   2.49329   2.49986   2.50139
 Alpha virt. eigenvalues --    2.50348   2.50964   2.51440   2.54200   2.55762
 Alpha virt. eigenvalues --    2.56395   2.56507   2.57474   2.59096   2.59600
 Alpha virt. eigenvalues --    2.60390   2.60599   2.61005   2.62344   2.63476
 Alpha virt. eigenvalues --    2.63809   2.64360   2.65210   2.65931   2.66267
 Alpha virt. eigenvalues --    2.67023   2.67489   2.68693   2.69981   2.70389
 Alpha virt. eigenvalues --    2.70559   2.70829   2.71051   2.71820   2.72034
 Alpha virt. eigenvalues --    2.72345   2.72475   2.72798   2.73378   2.73580
 Alpha virt. eigenvalues --    2.73659   2.73987   2.74390   2.74932   2.75731
 Alpha virt. eigenvalues --    2.76193   2.76975   2.77356   2.77938   2.78158
 Alpha virt. eigenvalues --    2.78566   2.78724   2.79524   2.79657   2.80316
 Alpha virt. eigenvalues --    2.80487   2.80641   2.81216   2.81703   2.82131
 Alpha virt. eigenvalues --    2.83006   2.83881   2.84502   2.84750   2.86289
 Alpha virt. eigenvalues --    2.86888   2.87024   2.87174   2.88646   2.89205
 Alpha virt. eigenvalues --    2.89248   2.90378   2.91572   2.92068   2.92675
 Alpha virt. eigenvalues --    2.92993   2.94364   2.96013   2.96746   2.97182
 Alpha virt. eigenvalues --    2.97354   2.97998   2.98716   2.99148   2.99652
 Alpha virt. eigenvalues --    2.99858   3.00862   3.01609   3.02361   3.03550
 Alpha virt. eigenvalues --    3.04301   3.04702   3.04897   3.05297   3.05875
 Alpha virt. eigenvalues --    3.06524   3.07580   3.07734   3.09547   3.10812
 Alpha virt. eigenvalues --    3.10907   3.13063   3.13141   3.13548   3.14010
 Alpha virt. eigenvalues --    3.15056   3.15670   3.16463   3.17104   3.17194
 Alpha virt. eigenvalues --    3.18696   3.20110   3.20342   3.21097   3.22513
 Alpha virt. eigenvalues --    3.22821   3.24411   3.25187   3.25806   3.29173
 Alpha virt. eigenvalues --    3.30653   3.31392   3.32075   3.32880   3.33405
 Alpha virt. eigenvalues --    3.34508   3.34652   3.36016   3.37487   3.37690
 Alpha virt. eigenvalues --    3.39675   3.41271   3.43637   3.45677   3.46365
 Alpha virt. eigenvalues --    3.46978   3.48086   3.48092   3.48985   3.49926
 Alpha virt. eigenvalues --    3.50826   3.51199   3.51798   3.52280   3.53536
 Alpha virt. eigenvalues --    3.55649   3.57266   3.58064   3.59994   3.61326
 Alpha virt. eigenvalues --    3.62374   3.62714   3.63723   3.64744   3.66377
 Alpha virt. eigenvalues --    3.66935   3.69379   3.69716   3.70343   3.71804
 Alpha virt. eigenvalues --    3.73688   3.74622   3.75186   3.75487   3.82194
 Alpha virt. eigenvalues --    3.88283   3.88391   3.89237   3.89579   3.91062
 Alpha virt. eigenvalues --    3.91735   3.92206   3.94698   3.96716   4.01030
 Alpha virt. eigenvalues --    4.02018   4.03758   4.04593   4.05936   4.09931
 Alpha virt. eigenvalues --    4.10126   4.10860   4.12540   4.13818   4.18253
 Alpha virt. eigenvalues --    4.20458   4.20621   4.20844   4.23013   4.24645
 Alpha virt. eigenvalues --    4.24895   4.25365   4.25600   4.26011   4.27753
 Alpha virt. eigenvalues --    4.27776   4.30933   4.31179   4.31650   4.32392
 Alpha virt. eigenvalues --    4.34607   4.49510   4.61932   4.68460   4.75841
 Alpha virt. eigenvalues --    4.85443   4.88223   4.95671   4.98285   4.98990
 Alpha virt. eigenvalues --    4.99056   5.02455   5.08953   5.09056   5.11569
 Alpha virt. eigenvalues --    5.20055   5.21107   5.30646   5.46772   5.47109
 Alpha virt. eigenvalues --    5.47226   5.73972   5.96531   5.97073   5.98012
 Alpha virt. eigenvalues --    8.00385   8.01931  17.50727  17.59567  17.67358
 Alpha virt. eigenvalues --   17.70291  17.88584  17.90345  23.84146  23.88741
 Alpha virt. eigenvalues --   23.92900  23.95062  24.03842  24.11978  24.17653
 Alpha virt. eigenvalues --   24.22203  24.25587  24.26660  24.26761  24.29148
 Alpha virt. eigenvalues --   24.30234  24.30781  24.31916  24.32714  24.34048
 Alpha virt. eigenvalues --   24.34160  24.34551  24.41858  24.42244  24.44642
 Alpha virt. eigenvalues --   24.45228  24.45396  24.51701  24.51937  24.52257
 Alpha virt. eigenvalues --   24.53410  24.53711  24.55056  24.58474  24.58835
 Alpha virt. eigenvalues --   24.59068  24.83609  35.96966  36.09985  36.15666
 Alpha virt. eigenvalues --   36.33796  50.44998  50.52802  50.52901  50.62299
 Alpha virt. eigenvalues --  190.08688 190.11575
          Condensed to atoms (all electrons):
 Mulliken charges:
               1
     1  C   -0.111524
     2  O   -0.399496
     3  C    0.201080
     4  C   -0.135572
     5  C   -0.070684
     6  C    0.071509
     7  N   -0.563671
     8  C    0.226706
     9  C   -0.124048
    10  C   -0.049635
    11  C   -0.012750
    12  C   -0.100360
    13  C   -0.125572
    14  H    0.128552
    15  H    0.111579
    16  C   -0.256613
    17  S    0.328930
    18  C   -0.295859
    19  C    0.001581
    20  C   -0.052939
    21  H    0.107980
    22  H    0.140733
    23  C    0.123961
    24  C   -0.128189
    25  C   -0.031224
    26  C   -0.093907
    27  C    0.161769
    28  C    0.159777
    29  N   -0.544386
    30  S    0.592952
    31  N   -0.538939
    32  C    0.053881
    33  C   -0.179320
    34  C    0.094225
    35  N   -0.270334
    36  C    0.509631
    37  O   -0.334089
    38  O   -0.337379
    39  H    0.254602
    40  H    0.129354
    41  H    0.146605
    42  H    0.117717
    43  H    0.101714
    44  H    0.127443
    45  C    0.071059
    46  C   -0.070129
    47  C   -0.135666
    48  C    0.200827
    49  C   -0.091300
    50  C   -0.066240
    51  H    0.115346
    52  H    0.116124
    53  O   -0.399909
    54  C   -0.111473
    55  H    0.110211
    56  H    0.109717
    57  H    0.131952
    58  H    0.115496
    59  H    0.112854
    60  C   -0.066331
    61  C   -0.090835
    62  H    0.116783
    63  H    0.115449
    64  H    0.112489
    65  H    0.115472
    66  H    0.132313
    67  H    0.110709
    68  H    0.109289
 Sum of Mulliken charges =  -0.00000
 Mulliken charges with hydrogens summed into heavy atoms:
               1
     1  C    0.240788
     2  O   -0.399496
     3  C    0.201080
     4  C   -0.020099
     5  C    0.041805
     6  C    0.071509
     7  N   -0.563671
     8  C    0.226706
     9  C    0.003396
    10  C    0.052079
    11  C   -0.012750
    12  C    0.011219
    13  C    0.002980
    16  C   -0.256613
    17  S    0.328930
    18  C   -0.295859
    19  C    0.142314
    20  C    0.055041
    23  C    0.123961
    24  C   -0.010472
    25  C    0.115381
    26  C   -0.093907
    27  C    0.161769
    28  C    0.159777
    29  N   -0.544386
    30  S    0.592952
    31  N   -0.538939
    32  C    0.183235
    33  C   -0.179320
    34  C    0.094225
    35  N   -0.270334
    36  C    0.509631
    37  O   -0.334089
    38  O   -0.082777
    45  C    0.071059
    46  C    0.042724
    47  C   -0.020170
    48  C    0.200827
    49  C    0.024825
    50  C    0.049107
    53  O   -0.399909
    54  C    0.240407
    60  C    0.049118
    61  C    0.025948
 Electronic spatial extent (au):  <R**2>=          58767.1674
 Charge=              0.0000 electrons
 Dipole moment (field-independent basis, Debye):
    X=             12.9610    Y=             -5.8409    Z=             -1.6393  Tot=             14.3106
 Quadrupole moment (field-independent basis, Debye-Ang):
   XX=           -301.7810   YY=           -268.4725   ZZ=           -266.7540
   XY=             65.2444   XZ=             16.6131   YZ=              5.7194
 Traceless Quadrupole moment (field-independent basis, Debye-Ang):
   XX=            -22.7785   YY=             10.5300   ZZ=             12.2485
   XY=             65.2444   XZ=             16.6131   YZ=              5.7194
 Octapole moment (field-independent basis, Debye-Ang**2):
  XXX=           1932.2762  YYY=            -78.4378  ZZZ=             -0.8302  XYY=            340.4849
  XXY=           -576.3167  XXZ=           -233.8695  XZZ=             15.8545  YZZ=              6.5625
  YYZ=              3.7073  XYZ=            118.8245
 Hexadecapole moment (field-independent basis, Debye-Ang**3):
 XXXX=         -77172.8478 YYYY=         -10203.0661 ZZZZ=           -750.5019 XXXY=           5904.7314
 XXXZ=           1607.8571 YYYX=           1715.0223 YYYZ=            178.7610 ZZZX=             24.3686
 ZZZY=            -26.8232 XXYY=         -13418.1212 XXZZ=         -11346.7465 YYZZ=          -1863.2457
 XXYZ=            366.4357 YYXZ=            301.2187 ZZXY=             15.2113
 N-N= 4.738910835546D+03 E-N=-1.563034562747D+04  KE= 2.617551254337D+03
 Unable to Open any file for archive entry.
 1\1\GINC-CN102\SP\RBHandHLYP TD-FC\6-311G(d,p)\C34H24N4O4S2\R2532\27-J
 ul-2021\0\\#N TD(NStates=10) BHandHLYP/6-311G(d,p)\\Name\\0,1\C,0,-7.8
 54865,6.024058,-0.403487\O,0,-6.930098,5.445576,0.507285\C,0,-6.551439
 ,4.151509,0.3146\C,0,-7.013084,3.328698,-0.716028\C,0,-6.548922,2.0178
 43,-0.819648\C,0,-5.63931,1.50177,0.102244\N,0,-5.195402,0.146676,0.00
 4616\C,0,-3.831426,-0.166409,0.016121\C,0,-3.376849,-1.423317,0.463194
 \C,0,-2.028745,-1.730473,0.469197\C,0,-1.05804,-0.808007,0.035304\C,0,
 -1.519446,0.446258,-0.403126\C,0,-2.865936,0.763307,-0.416735\H,0,-3.1
 82701,1.731893,-0.780526\H,0,-0.810972,1.178648,-0.774162\C,0,0.355386
 ,-1.156756,0.040233\S,0,1.59829,0.071945,0.059677\C,0,2.889919,-1.1280
 32,0.041858\C,0,2.339225,-2.399356,0.041965\C,0,0.933701,-2.413395,0.0
 39446\H,0,0.351646,-3.324188,0.004324\H,0,2.952581,-3.286838,0.029235\
 C,0,4.274635,-0.725308,0.027824\C,0,4.663327,0.611667,-0.041976\C,0,5.
 998093,1.048696,-0.058794\C,0,7.081872,0.178411,-0.008897\C,0,6.743828
 ,-1.21949,0.067869\C,0,5.36506,-1.673476,0.086099\N,0,5.25742,-3.00001
 1,0.162402\S,0,6.774991,-3.613123,0.206354\N,0,7.627557,-2.214635,0.13
 1885\C,0,8.479634,0.528438,-0.0263\C,0,9.115721,1.732156,-0.098297\C,0
 ,8.432816,2.976899,-0.214181\N,0,7.85974,3.978005,-0.29075\C,0,10.6129
 34,1.84396,-0.167833\O,0,11.17017,2.794364,-0.639908\O,0,11.326407,0.7
 95559,0.320491\H,0,10.764773,0.217454,0.849414\H,0,9.119864,-0.348824,
 -0.005237\H,0,6.16939,2.114206,-0.118876\H,0,3.896732,1.375424,-0.0927
 92\H,0,-1.717481,-2.694805,0.853227\H,0,-4.091832,-2.15159,0.822929\C,
 0,-6.182485,-0.88051,-0.109488\C,0,-7.243138,-0.949132,0.79286\C,0,-8.
 226109,-1.931155,0.674294\C,0,-8.146178,-2.876241,-0.351647\C,0,-7.080
 856,-2.813495,-1.259788\C,0,-6.119176,-1.823881,-1.145719\H,0,-5.30664
 3,-1.776838,-1.861042\H,0,-7.039224,-3.545811,-2.056842\O,0,-9.042096,
 -3.882022,-0.555863\C,0,-10.140418,-4.002717,0.337475\H,0,-9.804647,-4
 .183713,1.364656\H,0,-10.777211,-3.11122,0.314833\H,0,-10.712574,-4.86
 124,-0.009852\H,0,-9.036138,-1.951624,1.390748\H,0,-7.307425,-0.223104
 ,1.594546\C,0,-5.19181,2.330782,1.141623\C,0,-5.633098,3.639345,1.2409
 41\H,0,-5.292087,4.286042,2.040189\H,0,-4.491923,1.941314,1.871452\H,0
 ,-6.906439,1.386992,-1.624756\H,0,-7.721313,3.69391,-1.447422\H,0,-8.0
 09898,7.045443,-0.060366\H,0,-7.455829,6.042205,-1.423759\H,0,-8.81233
 6,5.491153,-0.39674\\Version=ES64L-G16RevC.01\State=1-A\HF=-2625.63207
 74\RMSD=8.594e-09\PG=C01 [X(C34H24N4O4S2)]\\@
 The archive entry for this job was punched.


 THE SOLUTION TO A PROBLEM CHANGES THE PROBLEM.

                                 -- JOHN PEERS
           PAUL DICKSON'S "THE OFFICIAL RULES"
 Job cpu time:       0 days  4 hours 26 minutes 54.5 seconds.
 Elapsed time:       0 days  4 hours 26 minutes 58.8 seconds.
 File lengths (MBytes):  RWF=   5550 Int=      0 D2E=      0 Chk=    341 Scr=      1
 Normal termination of Gaussian 16 at Tue Jul 27 15:18:18 2021.
