 Entering Gaussian System, Link 0=g16
 Input=GO.com
 Output=GO.out
 Initial command:
 /usr/local/apps/gaussian/g16-b01-avx2//g16/l1.exe "/tmp/r2532.924226.maple/Gau-30904.inp" -scrdir="/tmp/r2532.924226.maple/"
 Entering Link 1 = /usr/local/apps/gaussian/g16-b01-avx2//g16/l1.exe PID=     30905.
  
 Copyright (c) 1988-2017, Gaussian, Inc.  All Rights Reserved.
  
 This is part of the Gaussian(R) 16 program.  It is based on
 the Gaussian(R) 09 system (copyright 2009, Gaussian, Inc.),
 the Gaussian(R) 03 system (copyright 2003, Gaussian, Inc.),
 the Gaussian(R) 98 system (copyright 1998, Gaussian, Inc.),
 the Gaussian(R) 94 system (copyright 1995, Gaussian, Inc.),
 the Gaussian 92(TM) system (copyright 1992, Gaussian, Inc.),
 the Gaussian 90(TM) system (copyright 1990, Gaussian, Inc.),
 the Gaussian 88(TM) system (copyright 1988, Gaussian, Inc.),
 the Gaussian 86(TM) system (copyright 1986, Carnegie Mellon
 University), and the Gaussian 82(TM) system (copyright 1983,
 Carnegie Mellon University). Gaussian is a federally registered
 trademark of Gaussian, Inc.
  
 This software contains proprietary and confidential information,
 including trade secrets, belonging to Gaussian, Inc.
  
 This software is provided under written license and may be
 used, copied, transmitted, or stored only in accord with that
 written license.
  
 The following legend is applicable only to US Government
 contracts under FAR:
  
                    RESTRICTED RIGHTS LEGEND
  
 Use, reproduction and disclosure by the US Government is
 subject to restrictions as set forth in subparagraphs (a)
 and (c) of the Commercial Computer Software - Restricted
 Rights clause in FAR 52.227-19.
  
 Gaussian, Inc.
 340 Quinnipiac St., Bldg. 40, Wallingford CT 06492
  
  
 ---------------------------------------------------------------
 Warning -- This program may not be used in any manner that
 competes with the business of Gaussian, Inc. or will provide
 assistance to any competitor of Gaussian, Inc.  The licensee
 of this program is prohibited from giving any competitor of
 Gaussian, Inc. access to this program.  By using this program,
 the user acknowledges that Gaussian, Inc. is engaged in the
 business of creating and licensing software in the field of
 computational chemistry and represents and warrants to the
 licensee that it is not a competitor of Gaussian, Inc. and that
 it will not use this program in any manner prohibited above.
 ---------------------------------------------------------------
  

 Cite this work as:
 Gaussian 16, Revision B.01,
 M. J. Frisch, G. W. Trucks, H. B. Schlegel, G. E. Scuseria, 
 M. A. Robb, J. R. Cheeseman, G. Scalmani, V. Barone, 
 G. A. Petersson, H. Nakatsuji, X. Li, M. Caricato, A. V. Marenich, 
 J. Bloino, B. G. Janesko, R. Gomperts, B. Mennucci, H. P. Hratchian, 
 J. V. Ortiz, A. F. Izmaylov, J. L. Sonnenberg, D. Williams-Young, 
 F. Ding, F. Lipparini, F. Egidi, J. Goings, B. Peng, A. Petrone, 
 T. Henderson, D. Ranasinghe, V. G. Zakrzewski, J. Gao, N. Rega, 
 G. Zheng, W. Liang, M. Hada, M. Ehara, K. Toyota, R. Fukuda, 
 J. Hasegawa, M. Ishida, T. Nakajima, Y. Honda, O. Kitao, H. Nakai, 
 T. Vreven, K. Throssell, J. A. Montgomery, Jr., J. E. Peralta, 
 F. Ogliaro, M. J. Bearpark, J. J. Heyd, E. N. Brothers, K. N. Kudin, 
 V. N. Staroverov, T. A. Keith, R. Kobayashi, J. Normand, 
 K. Raghavachari, A. P. Rendell, J. C. Burant, S. S. Iyengar, 
 J. Tomasi, M. Cossi, J. M. Millam, M. Klene, C. Adamo, R. Cammi, 
 J. W. Ochterski, R. L. Martin, K. Morokuma, O. Farkas, 
 J. B. Foresman, and D. J. Fox, Gaussian, Inc., Wallingford CT, 2016.
 
 ******************************************
 Gaussian 16:  ES64L-G16RevB.01 20-Dec-2017
                 3-Aug-2021 
 ******************************************
 %mem=8gb
 ------------------------
 #N B3LYP/6-311G(d,p) OPT
 ------------------------
 1/18=20,19=15,26=3,38=1/1,3;
 2/9=110,12=2,17=6,18=5,40=1/2;
 3/5=4,6=6,7=101,11=2,25=1,30=1,71=1,74=-5/1,2,3;
 4//1;
 5/5=2,38=5/2;
 6/7=2,8=2,9=2,10=2,28=1/1;
 7//1,2,3,16;
 1/18=20,19=15,26=3/3(2);
 2/9=110/2;
 99//99;
 2/9=110/2;
 3/5=4,6=6,7=101,11=2,25=1,30=1,71=1,74=-5/1,2,3;
 4/5=5,16=3,69=1/1;
 5/5=2,38=5/2;
 7//1,2,3,16;
 1/18=20,19=15,26=3/3(-5);
 2/9=110/2;
 6/7=2,8=2,9=2,10=2,19=2,28=1/1;
 99/9=1/99;
 ------------
 C61H46O6N4S3
 ------------
 Symbolic Z-matrix:
 Charge =  0 Multiplicity = 1
 O                     1.86332  -0.93526   1.33935 
 C                     2.88141  -1.00923   0.65501 
 C                     3.78369  -2.22232   0.74635 
 C                     3.489    -3.41838   1.56932 
 C                     4.35671  -4.25228   2.22368 
 C                     5.77795  -3.97304   2.29202 
 N                     6.92154  -3.73816   2.30816 
 C                     3.83685  -5.5193    2.75681 
 S                     4.53205  -6.38781   4.10582 
 C                     2.80374  -6.29179   2.24867 
 C                     2.56219  -7.51526   2.95449 
 C                     3.43746  -7.74679   3.99887 
 C                     3.49652  -8.93399   4.88396 
 C                     4.31421  -9.13534   5.97758 
 C                     4.18666  -10.44379   6.56573 
 C                     3.19981  -11.26013   6.01583 
 C                     2.74417  -12.63513   6.345 
 C                     2.80172  -13.23656   7.57773 
 C                     3.32394  -12.33746   8.68646 
 N                     3.75717  -11.59157   9.60625 
 C                     2.35238  -14.61093   7.85252 
 O                     2.469    -15.02613   9.13516 
 O                     1.90868  -15.34233   6.98097 
 S                     2.50886  -10.36212   4.67166 
 C                     4.77448  -2.26658  -0.14744 
 C                     5.2866   -1.02126  -0.66441 
 C                     6.65533  -0.91651  -0.77736 
 C                     7.25465   0.2707   -1.18776 
 C                     6.44367   1.36929  -1.56542 
 N                     7.02466   2.54224  -2.06807 
 C                     6.32797   3.80832  -1.81989 
 C                     4.80841   3.72042  -1.77911 
 C                     4.22684   2.36155  -2.21125 
 C                     2.71058   2.39948  -1.95237 
 C                     4.39768   2.21108  -3.75307 
 C                     8.48628   2.67186  -2.09958 
 C                     9.18607   1.34001  -2.28686 
 C                     8.77617   0.34442  -1.19772 
 C                     9.43606  -1.01431  -1.53621 
 C                     9.26204   0.77596   0.2027 
 C                     5.01506   1.24881  -1.49526 
 C                     4.48108   0.07946  -0.89578 
 O                     3.18266  -0.01837  -0.32996 
 H                     2.41464  -3.6198    1.61028 
 H                     2.23418  -5.99964   1.37245 
 H                     1.77784  -8.20429   2.67092 
 H                     5.01897  -8.39603   6.34237 
 H                     4.83269  -10.73229   7.38506 
 H                     2.32045  -13.20265   5.51607 
 H                     2.83022  -14.41054   9.8019 
 H                     5.33609  -3.16532  -0.37418 
 H                     7.25533  -1.76056  -0.4515 
 H                     6.62416   4.52623  -2.59635 
 H                     6.67875   4.23319  -0.86958 
 H                     4.39547   4.53221  -2.39624 
 H                     4.4856    3.95064  -0.75477 
 H                     2.25011   3.24794  -2.47806 
 H                     2.48193   2.51695  -0.88905 
 H                     2.21568   1.49418  -2.3191 
 H                     3.87947   3.01725  -4.2888 
 H                     3.98465   1.25961  -4.1061 
 H                     5.44218   2.246    -4.08115 
 H                     8.83935   3.16633  -1.18715 
 H                     8.76455   3.32807  -2.93339 
 H                     10.27236   1.48966  -2.27936 
 H                     8.92774   0.93678  -3.27623 
 H                     9.00392  -1.4494   -2.44549 
 H                     9.31353  -1.74658  -0.72883 
 H                     10.51383  -0.90497  -1.68975 
 H                     8.85112   1.74275   0.5127 
 H                     10.35452   0.84969   0.23316 
 H                     8.95843   0.05225   0.97 
 

 GradGradGradGradGradGradGradGradGradGradGradGradGradGradGradGradGradGrad
 Berny optimization.
 Initialization pass.
                           ----------------------------
                           !    Initial Parameters    !
                           ! (Angstroms and Degrees)  !
 --------------------------                            --------------------------
 ! Name  Definition              Value          Derivative Info.                !
 --------------------------------------------------------------------------------
 ! R1    R(1,2)                  1.2289         estimate D2E/DX2                !
 ! R2    R(2,3)                  1.5146         estimate D2E/DX2                !
 ! R3    R(2,43)                 1.4292         estimate D2E/DX2                !
 ! R4    R(3,4)                  1.4814         estimate D2E/DX2                !
 ! R5    R(3,25)                 1.3351         estimate D2E/DX2                !
 ! R6    R(4,5)                  1.3699         estimate D2E/DX2                !
 ! R7    R(4,44)                 1.0938         estimate D2E/DX2                !
 ! R8    R(5,6)                  1.45           estimate D2E/DX2                !
 ! R9    R(5,8)                  1.4696         estimate D2E/DX2                !
 ! R10   R(6,7)                  1.1676         estimate D2E/DX2                !
 ! R11   R(8,9)                  1.7486         estimate D2E/DX2                !
 ! R12   R(8,10)                 1.3865         estimate D2E/DX2                !
 ! R13   R(9,12)                 1.7483         estimate D2E/DX2                !
 ! R14   R(10,11)                1.433          estimate D2E/DX2                !
 ! R15   R(10,45)                1.0851         estimate D2E/DX2                !
 ! R16   R(11,12)                1.3822         estimate D2E/DX2                !
 ! R17   R(11,46)                1.0818         estimate D2E/DX2                !
 ! R18   R(12,13)                1.482          estimate D2E/DX2                !
 ! R19   R(13,14)                1.3803         estimate D2E/DX2                !
 ! R20   R(13,24)                1.7493         estimate D2E/DX2                !
 ! R21   R(14,15)                1.4402         estimate D2E/DX2                !
 ! R22   R(14,47)                1.0846         estimate D2E/DX2                !
 ! R23   R(15,16)                1.3938         estimate D2E/DX2                !
 ! R24   R(15,48)                1.0825         estimate D2E/DX2                !
 ! R25   R(16,17)                1.4855         estimate D2E/DX2                !
 ! R26   R(16,24)                1.758          estimate D2E/DX2                !
 ! R27   R(17,18)                1.3728         estimate D2E/DX2                !
 ! R28   R(17,49)                1.0903         estimate D2E/DX2                !
 ! R29   R(18,19)                1.52           estimate D2E/DX2                !
 ! R30   R(18,21)                1.4718         estimate D2E/DX2                !
 ! R31   R(19,20)                1.261          estimate D2E/DX2                !
 ! R32   R(21,22)                1.3532         estimate D2E/DX2                !
 ! R33   R(21,23)                1.2212         estimate D2E/DX2                !
 ! R34   R(22,50)                0.9767         estimate D2E/DX2                !
 ! R35   R(25,26)                1.4423         estimate D2E/DX2                !
 ! R36   R(25,51)                1.0838         estimate D2E/DX2                !
 ! R37   R(26,27)                1.3774         estimate D2E/DX2                !
 ! R38   R(26,42)                1.3835         estimate D2E/DX2                !
 ! R39   R(27,28)                1.3918         estimate D2E/DX2                !
 ! R40   R(27,52)                1.0856         estimate D2E/DX2                !
 ! R41   R(28,29)                1.4168         estimate D2E/DX2                !
 ! R42   R(28,38)                1.5233         estimate D2E/DX2                !
 ! R43   R(29,30)                1.4021         estimate D2E/DX2                !
 ! R44   R(29,41)                1.4354         estimate D2E/DX2                !
 ! R45   R(30,31)                1.4663         estimate D2E/DX2                !
 ! R46   R(30,36)                1.4677         estimate D2E/DX2                !
 ! R47   R(31,32)                1.5226         estimate D2E/DX2                !
 ! R48   R(31,53)                1.0982         estimate D2E/DX2                !
 ! R49   R(31,54)                1.0985         estimate D2E/DX2                !
 ! R50   R(32,33)                1.54           estimate D2E/DX2                !
 ! R51   R(32,55)                1.1002         estimate D2E/DX2                !
 ! R52   R(32,56)                1.0984         estimate D2E/DX2                !
 ! R53   R(33,34)                1.5387         estimate D2E/DX2                !
 ! R54   R(33,35)                1.5585         estimate D2E/DX2                !
 ! R55   R(33,41)                1.5402         estimate D2E/DX2                !
 ! R56   R(34,57)                1.0992         estimate D2E/DX2                !
 ! R57   R(34,58)                1.094          estimate D2E/DX2                !
 ! R58   R(34,59)                1.095          estimate D2E/DX2                !
 ! R59   R(35,60)                1.0979         estimate D2E/DX2                !
 ! R60   R(35,61)                1.0957         estimate D2E/DX2                !
 ! R61   R(35,62)                1.0954         estimate D2E/DX2                !
 ! R62   R(36,37)                1.5161         estimate D2E/DX2                !
 ! R63   R(36,63)                1.0962         estimate D2E/DX2                !
 ! R64   R(36,64)                1.0969         estimate D2E/DX2                !
 ! R65   R(37,38)                1.5315         estimate D2E/DX2                !
 ! R66   R(37,65)                1.0966         estimate D2E/DX2                !
 ! R67   R(37,66)                1.0992         estimate D2E/DX2                !
 ! R68   R(38,39)                1.548          estimate D2E/DX2                !
 ! R69   R(38,40)                1.5438         estimate D2E/DX2                !
 ! R70   R(39,67)                1.0967         estimate D2E/DX2                !
 ! R71   R(39,68)                1.0969         estimate D2E/DX2                !
 ! R72   R(39,69)                1.0941         estimate D2E/DX2                !
 ! R73   R(40,70)                1.0953         estimate D2E/DX2                !
 ! R74   R(40,71)                1.0954         estimate D2E/DX2                !
 ! R75   R(40,72)                1.0976         estimate D2E/DX2                !
 ! R76   R(41,42)                1.4184         estimate D2E/DX2                !
 ! R77   R(42,43)                1.4197         estimate D2E/DX2                !
 ! A1    A(1,2,3)              120.5397         estimate D2E/DX2                !
 ! A2    A(1,2,43)             121.1074         estimate D2E/DX2                !
 ! A3    A(3,2,43)             118.1162         estimate D2E/DX2                !
 ! A4    A(2,3,4)              124.169          estimate D2E/DX2                !
 ! A5    A(2,3,25)             115.3577         estimate D2E/DX2                !
 ! A6    A(4,3,25)             119.5216         estimate D2E/DX2                !
 ! A7    A(3,4,5)              129.1123         estimate D2E/DX2                !
 ! A8    A(3,4,44)             111.3981         estimate D2E/DX2                !
 ! A9    A(5,4,44)             119.4831         estimate D2E/DX2                !
 ! A10   A(4,5,6)              121.7451         estimate D2E/DX2                !
 ! A11   A(4,5,8)              118.2972         estimate D2E/DX2                !
 ! A12   A(6,5,8)              119.7121         estimate D2E/DX2                !
 ! A13   A(5,8,9)              124.573          estimate D2E/DX2                !
 ! A14   A(5,8,10)             127.6606         estimate D2E/DX2                !
 ! A15   A(9,8,10)             107.5939         estimate D2E/DX2                !
 ! A16   A(8,9,12)              95.1623         estimate D2E/DX2                !
 ! A17   A(8,10,11)            114.8846         estimate D2E/DX2                !
 ! A18   A(8,10,45)            122.4827         estimate D2E/DX2                !
 ! A19   A(11,10,45)           122.6238         estimate D2E/DX2                !
 ! A20   A(10,11,12)           114.1076         estimate D2E/DX2                !
 ! A21   A(10,11,46)           122.4724         estimate D2E/DX2                !
 ! A22   A(12,11,46)           123.4003         estimate D2E/DX2                !
 ! A23   A(9,12,11)            108.2096         estimate D2E/DX2                !
 ! A24   A(9,12,13)            124.1403         estimate D2E/DX2                !
 ! A25   A(11,12,13)           127.6395         estimate D2E/DX2                !
 ! A26   A(12,13,14)           127.8548         estimate D2E/DX2                !
 ! A27   A(12,13,24)           123.9879         estimate D2E/DX2                !
 ! A28   A(14,13,24)           108.152          estimate D2E/DX2                !
 ! A29   A(13,14,15)           113.8052         estimate D2E/DX2                !
 ! A30   A(13,14,47)           123.504          estimate D2E/DX2                !
 ! A31   A(15,14,47)           122.6481         estimate D2E/DX2                !
 ! A32   A(14,15,16)           115.7023         estimate D2E/DX2                !
 ! A33   A(14,15,48)           119.891          estimate D2E/DX2                !
 ! A34   A(16,15,48)           124.4058         estimate D2E/DX2                !
 ! A35   A(15,16,17)           132.2133         estimate D2E/DX2                !
 ! A36   A(15,16,24)           106.3053         estimate D2E/DX2                !
 ! A37   A(17,16,24)           121.4464         estimate D2E/DX2                !
 ! A38   A(16,17,18)           126.2736         estimate D2E/DX2                !
 ! A39   A(16,17,49)           115.6292         estimate D2E/DX2                !
 ! A40   A(18,17,49)           118.0959         estimate D2E/DX2                !
 ! A41   A(17,18,19)           114.2208         estimate D2E/DX2                !
 ! A42   A(17,18,21)           124.3282         estimate D2E/DX2                !
 ! A43   A(19,18,21)           121.4027         estimate D2E/DX2                !
 ! A44   A(18,21,22)           115.9229         estimate D2E/DX2                !
 ! A45   A(18,21,23)           122.4742         estimate D2E/DX2                !
 ! A46   A(22,21,23)           121.601          estimate D2E/DX2                !
 ! A47   A(21,22,50)           119.0471         estimate D2E/DX2                !
 ! A48   A(13,24,16)            95.8731         estimate D2E/DX2                !
 ! A49   A(3,25,26)            118.3478         estimate D2E/DX2                !
 ! A50   A(3,25,51)            123.5122         estimate D2E/DX2                !
 ! A51   A(26,25,51)           117.1947         estimate D2E/DX2                !
 ! A52   A(25,26,27)           116.6083         estimate D2E/DX2                !
 ! A53   A(25,26,42)           122.694          estimate D2E/DX2                !
 ! A54   A(27,26,42)           120.2897         estimate D2E/DX2                !
 ! A55   A(26,27,28)           121.1287         estimate D2E/DX2                !
 ! A56   A(26,27,52)           117.7402         estimate D2E/DX2                !
 ! A57   A(28,27,52)           120.9113         estimate D2E/DX2                !
 ! A58   A(27,28,29)           119.5746         estimate D2E/DX2                !
 ! A59   A(27,28,38)           118.2491         estimate D2E/DX2                !
 ! A60   A(29,28,38)           122.1722         estimate D2E/DX2                !
 ! A61   A(28,29,30)           120.4672         estimate D2E/DX2                !
 ! A62   A(28,29,41)           119.4456         estimate D2E/DX2                !
 ! A63   A(30,29,41)           120.0089         estimate D2E/DX2                !
 ! A64   A(29,30,31)           117.6954         estimate D2E/DX2                !
 ! A65   A(29,30,36)           119.6182         estimate D2E/DX2                !
 ! A66   A(31,30,36)           113.6129         estimate D2E/DX2                !
 ! A67   A(30,31,32)           115.3958         estimate D2E/DX2                !
 ! A68   A(30,31,53)           108.4604         estimate D2E/DX2                !
 ! A69   A(30,31,54)           109.1884         estimate D2E/DX2                !
 ! A70   A(32,31,53)           109.0162         estimate D2E/DX2                !
 ! A71   A(32,31,54)           108.5326         estimate D2E/DX2                !
 ! A72   A(53,31,54)           105.8248         estimate D2E/DX2                !
 ! A73   A(31,32,33)           114.8541         estimate D2E/DX2                !
 ! A74   A(31,32,55)           108.4793         estimate D2E/DX2                !
 ! A75   A(31,32,56)           107.8287         estimate D2E/DX2                !
 ! A76   A(33,32,55)           110.6065         estimate D2E/DX2                !
 ! A77   A(33,32,56)           109.6124         estimate D2E/DX2                !
 ! A78   A(55,32,56)           104.9606         estimate D2E/DX2                !
 ! A79   A(32,33,34)           107.649          estimate D2E/DX2                !
 ! A80   A(32,33,35)           108.7478         estimate D2E/DX2                !
 ! A81   A(32,33,41)           108.2879         estimate D2E/DX2                !
 ! A82   A(34,33,35)           106.0719         estimate D2E/DX2                !
 ! A83   A(34,33,41)           116.354          estimate D2E/DX2                !
 ! A84   A(35,33,41)           109.5142         estimate D2E/DX2                !
 ! A85   A(33,34,57)           110.5713         estimate D2E/DX2                !
 ! A86   A(33,34,58)           111.8485         estimate D2E/DX2                !
 ! A87   A(33,34,59)           111.6329         estimate D2E/DX2                !
 ! A88   A(57,34,58)           107.1221         estimate D2E/DX2                !
 ! A89   A(57,34,59)           106.7778         estimate D2E/DX2                !
 ! A90   A(58,34,59)           108.654          estimate D2E/DX2                !
 ! A91   A(33,35,60)           111.1053         estimate D2E/DX2                !
 ! A92   A(33,35,61)           111.1778         estimate D2E/DX2                !
 ! A93   A(33,35,62)           113.4376         estimate D2E/DX2                !
 ! A94   A(60,35,61)           107.6067         estimate D2E/DX2                !
 ! A95   A(60,35,62)           106.2908         estimate D2E/DX2                !
 ! A96   A(61,35,62)           106.896          estimate D2E/DX2                !
 ! A97   A(30,36,37)           112.6268         estimate D2E/DX2                !
 ! A98   A(30,36,63)           110.0424         estimate D2E/DX2                !
 ! A99   A(30,36,64)           108.7705         estimate D2E/DX2                !
 ! A100  A(37,36,63)           110.5119         estimate D2E/DX2                !
 ! A101  A(37,36,64)           108.3322         estimate D2E/DX2                !
 ! A102  A(63,36,64)           106.3283         estimate D2E/DX2                !
 ! A103  A(36,37,38)           111.081          estimate D2E/DX2                !
 ! A104  A(36,37,65)           109.6644         estimate D2E/DX2                !
 ! A105  A(36,37,66)           108.9638         estimate D2E/DX2                !
 ! A106  A(38,37,65)           110.4256         estimate D2E/DX2                !
 ! A107  A(38,37,66)           109.8            estimate D2E/DX2                !
 ! A108  A(65,37,66)           106.8004         estimate D2E/DX2                !
 ! A109  A(28,38,37)           107.6643         estimate D2E/DX2                !
 ! A110  A(28,38,39)           112.6276         estimate D2E/DX2                !
 ! A111  A(28,38,40)           108.7799         estimate D2E/DX2                !
 ! A112  A(37,38,39)           107.518          estimate D2E/DX2                !
 ! A113  A(37,38,40)           112.2811         estimate D2E/DX2                !
 ! A114  A(39,38,40)           108.0318         estimate D2E/DX2                !
 ! A115  A(38,39,67)           111.1947         estimate D2E/DX2                !
 ! A116  A(38,39,68)           112.1737         estimate D2E/DX2                !
 ! A117  A(38,39,69)           111.2779         estimate D2E/DX2                !
 ! A118  A(67,39,68)           107.542          estimate D2E/DX2                !
 ! A119  A(67,39,69)           108.1455         estimate D2E/DX2                !
 ! A120  A(68,39,69)           106.2633         estimate D2E/DX2                !
 ! A121  A(38,40,70)           112.6683         estimate D2E/DX2                !
 ! A122  A(38,40,71)           110.9723         estimate D2E/DX2                !
 ! A123  A(38,40,72)           111.2705         estimate D2E/DX2                !
 ! A124  A(70,40,71)           107.8721         estimate D2E/DX2                !
 ! A125  A(70,40,72)           106.2825         estimate D2E/DX2                !
 ! A126  A(71,40,72)           107.5071         estimate D2E/DX2                !
 ! A127  A(29,41,33)           115.2134         estimate D2E/DX2                !
 ! A128  A(29,41,42)           117.6803         estimate D2E/DX2                !
 ! A129  A(33,41,42)           126.8291         estimate D2E/DX2                !
 ! A130  A(26,42,41)           120.4913         estimate D2E/DX2                !
 ! A131  A(26,42,43)           114.2691         estimate D2E/DX2                !
 ! A132  A(41,42,43)           124.7186         estimate D2E/DX2                !
 ! A133  A(2,43,42)            121.0107         estimate D2E/DX2                !
 ! A134  L(5,6,7,14,-1)        181.5666         estimate D2E/DX2                !
 ! A135  L(18,19,20,1,-1)      179.9998         estimate D2E/DX2                !
 ! A136  L(5,6,7,14,-2)        178.7178         estimate D2E/DX2                !
 ! A137  L(18,19,20,1,-2)      180.0001         estimate D2E/DX2                !
 ! D1    D(1,2,3,4)              3.9369         estimate D2E/DX2                !
 ! D2    D(1,2,3,25)           172.6798         estimate D2E/DX2                !
 ! D3    D(43,2,3,4)          -170.536          estimate D2E/DX2                !
 ! D4    D(43,2,3,25)           -1.7932         estimate D2E/DX2                !
 ! D5    D(1,2,43,42)          165.131          estimate D2E/DX2                !
 ! D6    D(3,2,43,42)          -20.4289         estimate D2E/DX2                !
 ! D7    D(2,3,4,5)           -147.1657         estimate D2E/DX2                !
 ! D8    D(2,3,4,44)            33.783          estimate D2E/DX2                !
 ! D9    D(25,3,4,5)            44.5305         estimate D2E/DX2                !
 ! D10   D(25,3,4,44)         -134.5207         estimate D2E/DX2                !
 ! D11   D(2,3,25,26)           27.5713         estimate D2E/DX2                !
 ! D12   D(2,3,25,51)         -163.882          estimate D2E/DX2                !
 ! D13   D(4,3,25,26)         -163.1256         estimate D2E/DX2                !
 ! D14   D(4,3,25,51)            5.4211         estimate D2E/DX2                !
 ! D15   D(3,4,5,6)              6.0308         estimate D2E/DX2                !
 ! D16   D(3,4,5,8)           -168.2571         estimate D2E/DX2                !
 ! D17   D(44,4,5,6)          -174.984          estimate D2E/DX2                !
 ! D18   D(44,4,5,8)            10.7282         estimate D2E/DX2                !
 ! D19   D(4,5,8,9)           -154.3839         estimate D2E/DX2                !
 ! D20   D(4,5,8,10)            30.9927         estimate D2E/DX2                !
 ! D21   D(6,5,8,9)             31.2086         estimate D2E/DX2                !
 ! D22   D(6,5,8,10)          -143.4148         estimate D2E/DX2                !
 ! D23   D(5,8,9,12)          -176.3405         estimate D2E/DX2                !
 ! D24   D(10,8,9,12)           -0.8036         estimate D2E/DX2                !
 ! D25   D(5,8,10,11)          177.2223         estimate D2E/DX2                !
 ! D26   D(5,8,10,45)           -1.7185         estimate D2E/DX2                !
 ! D27   D(9,8,10,11)            1.8649         estimate D2E/DX2                !
 ! D28   D(9,8,10,45)         -177.0759         estimate D2E/DX2                !
 ! D29   D(8,9,12,11)           -0.4449         estimate D2E/DX2                !
 ! D30   D(8,9,12,13)          178.4517         estimate D2E/DX2                !
 ! D31   D(8,10,11,12)          -2.3549         estimate D2E/DX2                !
 ! D32   D(8,10,11,46)         179.2071         estimate D2E/DX2                !
 ! D33   D(45,10,11,12)        176.5843         estimate D2E/DX2                !
 ! D34   D(45,10,11,46)         -1.8538         estimate D2E/DX2                !
 ! D35   D(10,11,12,9)           1.5868         estimate D2E/DX2                !
 ! D36   D(10,11,12,13)       -177.2599         estimate D2E/DX2                !
 ! D37   D(46,11,12,9)        -179.9916         estimate D2E/DX2                !
 ! D38   D(46,11,12,13)          1.1617         estimate D2E/DX2                !
 ! D39   D(9,12,13,14)           5.5932         estimate D2E/DX2                !
 ! D40   D(9,12,13,24)        -173.4628         estimate D2E/DX2                !
 ! D41   D(11,12,13,14)       -175.7305         estimate D2E/DX2                !
 ! D42   D(11,12,13,24)          5.2135         estimate D2E/DX2                !
 ! D43   D(12,13,14,15)       -175.8067         estimate D2E/DX2                !
 ! D44   D(12,13,14,47)          1.8702         estimate D2E/DX2                !
 ! D45   D(24,13,14,15)          3.3696         estimate D2E/DX2                !
 ! D46   D(24,13,14,47)       -178.9535         estimate D2E/DX2                !
 ! D47   D(12,13,24,16)        177.9908         estimate D2E/DX2                !
 ! D48   D(14,13,24,16)         -1.2248         estimate D2E/DX2                !
 ! D49   D(13,14,15,16)         -4.679          estimate D2E/DX2                !
 ! D50   D(13,14,15,48)        175.6568         estimate D2E/DX2                !
 ! D51   D(47,14,15,16)        177.6216         estimate D2E/DX2                !
 ! D52   D(47,14,15,48)         -2.0426         estimate D2E/DX2                !
 ! D53   D(14,15,16,17)       -178.766          estimate D2E/DX2                !
 ! D54   D(14,15,16,24)          3.4299         estimate D2E/DX2                !
 ! D55   D(48,15,16,17)          0.8812         estimate D2E/DX2                !
 ! D56   D(48,15,16,24)       -176.923          estimate D2E/DX2                !
 ! D57   D(15,16,17,18)         28.4739         estimate D2E/DX2                !
 ! D58   D(15,16,17,49)       -151.9535         estimate D2E/DX2                !
 ! D59   D(24,16,17,18)       -153.9966         estimate D2E/DX2                !
 ! D60   D(24,16,17,49)         25.576          estimate D2E/DX2                !
 ! D61   D(15,16,24,13)         -1.2348         estimate D2E/DX2                !
 ! D62   D(17,16,24,13)       -179.3286         estimate D2E/DX2                !
 ! D63   D(16,17,18,19)          3.3161         estimate D2E/DX2                !
 ! D64   D(16,17,18,21)       -179.1894         estimate D2E/DX2                !
 ! D65   D(49,17,18,19)       -176.2471         estimate D2E/DX2                !
 ! D66   D(49,17,18,21)          1.2474         estimate D2E/DX2                !
 ! D67   D(17,18,21,22)       -179.0627         estimate D2E/DX2                !
 ! D68   D(17,18,21,23)          1.4255         estimate D2E/DX2                !
 ! D69   D(19,18,21,22)         -1.7399         estimate D2E/DX2                !
 ! D70   D(19,18,21,23)        178.7484         estimate D2E/DX2                !
 ! D71   D(18,21,22,50)          0.3828         estimate D2E/DX2                !
 ! D72   D(23,21,22,50)        179.8992         estimate D2E/DX2                !
 ! D73   D(3,25,26,27)         137.18           estimate D2E/DX2                !
 ! D74   D(3,25,26,42)         -35.4984         estimate D2E/DX2                !
 ! D75   D(51,25,26,27)        -32.0926         estimate D2E/DX2                !
 ! D76   D(51,25,26,42)        155.229          estimate D2E/DX2                !
 ! D77   D(25,26,27,28)       -176.0515         estimate D2E/DX2                !
 ! D78   D(25,26,27,52)         -1.3911         estimate D2E/DX2                !
 ! D79   D(42,26,27,28)         -3.1863         estimate D2E/DX2                !
 ! D80   D(42,26,27,52)        171.4741         estimate D2E/DX2                !
 ! D81   D(25,26,42,41)       -175.4233         estimate D2E/DX2                !
 ! D82   D(25,26,42,43)         12.4746         estimate D2E/DX2                !
 ! D83   D(27,26,42,41)         12.1593         estimate D2E/DX2                !
 ! D84   D(27,26,42,43)       -159.9428         estimate D2E/DX2                !
 ! D85   D(26,27,28,29)         -3.4342         estimate D2E/DX2                !
 ! D86   D(26,27,28,38)        175.8468         estimate D2E/DX2                !
 ! D87   D(52,27,28,29)       -177.9254         estimate D2E/DX2                !
 ! D88   D(52,27,28,38)          1.3556         estimate D2E/DX2                !
 ! D89   D(27,28,29,30)       -175.6396         estimate D2E/DX2                !
 ! D90   D(27,28,29,41)          1.1442         estimate D2E/DX2                !
 ! D91   D(38,28,29,30)          5.1086         estimate D2E/DX2                !
 ! D92   D(38,28,29,41)       -178.1076         estimate D2E/DX2                !
 ! D93   D(27,28,38,37)        151.2455         estimate D2E/DX2                !
 ! D94   D(27,28,38,39)         32.8872         estimate D2E/DX2                !
 ! D95   D(27,28,38,40)        -86.8453         estimate D2E/DX2                !
 ! D96   D(29,28,38,37)        -29.4932         estimate D2E/DX2                !
 ! D97   D(29,28,38,39)       -147.8515         estimate D2E/DX2                !
 ! D98   D(29,28,38,40)         92.4159         estimate D2E/DX2                !
 ! D99   D(28,29,30,31)       -149.9754         estimate D2E/DX2                !
 ! D100  D(28,29,30,36)         -5.0116         estimate D2E/DX2                !
 ! D101  D(41,29,30,31)         33.2589         estimate D2E/DX2                !
 ! D102  D(41,29,30,36)        178.2227         estimate D2E/DX2                !
 ! D103  D(28,29,41,33)       -167.005          estimate D2E/DX2                !
 ! D104  D(28,29,41,42)          7.3648         estimate D2E/DX2                !
 ! D105  D(30,29,41,33)          9.7938         estimate D2E/DX2                !
 ! D106  D(30,29,41,42)       -175.8365         estimate D2E/DX2                !
 ! D107  D(29,30,31,32)        -33.0118         estimate D2E/DX2                !
 ! D108  D(29,30,31,53)       -155.6097         estimate D2E/DX2                !
 ! D109  D(29,30,31,54)         89.5193         estimate D2E/DX2                !
 ! D110  D(36,30,31,32)        179.9915         estimate D2E/DX2                !
 ! D111  D(36,30,31,53)         57.3936         estimate D2E/DX2                !
 ! D112  D(36,30,31,54)        -57.4774         estimate D2E/DX2                !
 ! D113  D(29,30,36,37)         30.7694         estimate D2E/DX2                !
 ! D114  D(29,30,36,63)        -93.0205         estimate D2E/DX2                !
 ! D115  D(29,30,36,64)        150.872          estimate D2E/DX2                !
 ! D116  D(31,30,36,37)        177.0745         estimate D2E/DX2                !
 ! D117  D(31,30,36,63)         53.2846         estimate D2E/DX2                !
 ! D118  D(31,30,36,64)        -62.8229         estimate D2E/DX2                !
 ! D119  D(30,31,32,33)         -8.7087         estimate D2E/DX2                !
 ! D120  D(30,31,32,55)       -133.0249         estimate D2E/DX2                !
 ! D121  D(30,31,32,56)        113.8087         estimate D2E/DX2                !
 ! D122  D(53,31,32,33)        113.5927         estimate D2E/DX2                !
 ! D123  D(53,31,32,55)        -10.7236         estimate D2E/DX2                !
 ! D124  D(53,31,32,56)       -123.8899         estimate D2E/DX2                !
 ! D125  D(54,31,32,33)       -131.5887         estimate D2E/DX2                !
 ! D126  D(54,31,32,55)        104.0951         estimate D2E/DX2                !
 ! D127  D(54,31,32,56)         -9.0713         estimate D2E/DX2                !
 ! D128  D(31,32,33,34)        173.4863         estimate D2E/DX2                !
 ! D129  D(31,32,33,35)        -72.0081         estimate D2E/DX2                !
 ! D130  D(31,32,33,41)         46.9187         estimate D2E/DX2                !
 ! D131  D(55,32,33,34)        -63.3276         estimate D2E/DX2                !
 ! D132  D(55,32,33,35)         51.1781         estimate D2E/DX2                !
 ! D133  D(55,32,33,41)        170.1049         estimate D2E/DX2                !
 ! D134  D(56,32,33,34)         51.935          estimate D2E/DX2                !
 ! D135  D(56,32,33,35)        166.4406         estimate D2E/DX2                !
 ! D136  D(56,32,33,41)        -74.6326         estimate D2E/DX2                !
 ! D137  D(32,33,34,57)         56.283          estimate D2E/DX2                !
 ! D138  D(32,33,34,58)        -63.0099         estimate D2E/DX2                !
 ! D139  D(32,33,34,59)        175.0027         estimate D2E/DX2                !
 ! D140  D(35,33,34,57)        -59.9907         estimate D2E/DX2                !
 ! D141  D(35,33,34,58)       -179.2836         estimate D2E/DX2                !
 ! D142  D(35,33,34,59)         58.729          estimate D2E/DX2                !
 ! D143  D(41,33,34,57)        177.9582         estimate D2E/DX2                !
 ! D144  D(41,33,34,58)         58.6652         estimate D2E/DX2                !
 ! D145  D(41,33,34,59)        -63.3221         estimate D2E/DX2                !
 ! D146  D(32,33,35,60)        -59.4922         estimate D2E/DX2                !
 ! D147  D(32,33,35,61)       -179.3106         estimate D2E/DX2                !
 ! D148  D(32,33,35,62)         60.1807         estimate D2E/DX2                !
 ! D149  D(34,33,35,60)         56.0377         estimate D2E/DX2                !
 ! D150  D(34,33,35,61)        -63.7807         estimate D2E/DX2                !
 ! D151  D(34,33,35,62)        175.7106         estimate D2E/DX2                !
 ! D152  D(41,33,35,60)       -177.647          estimate D2E/DX2                !
 ! D153  D(41,33,35,61)         62.5347         estimate D2E/DX2                !
 ! D154  D(41,33,35,62)        -57.9741         estimate D2E/DX2                !
 ! D155  D(32,33,41,29)        -48.4398         estimate D2E/DX2                !
 ! D156  D(32,33,41,42)        137.7915         estimate D2E/DX2                !
 ! D157  D(34,33,41,29)       -169.7769         estimate D2E/DX2                !
 ! D158  D(34,33,41,42)         16.4543         estimate D2E/DX2                !
 ! D159  D(35,33,41,29)         70.001          estimate D2E/DX2                !
 ! D160  D(35,33,41,42)       -103.7677         estimate D2E/DX2                !
 ! D161  D(30,36,37,38)        -56.3207         estimate D2E/DX2                !
 ! D162  D(30,36,37,65)       -178.6607         estimate D2E/DX2                !
 ! D163  D(30,36,37,66)         64.7657         estimate D2E/DX2                !
 ! D164  D(63,36,37,38)         67.2086         estimate D2E/DX2                !
 ! D165  D(63,36,37,65)        -55.1313         estimate D2E/DX2                !
 ! D166  D(63,36,37,66)       -171.7049         estimate D2E/DX2                !
 ! D167  D(64,36,37,38)       -176.6758         estimate D2E/DX2                !
 ! D168  D(64,36,37,65)         60.9843         estimate D2E/DX2                !
 ! D169  D(64,36,37,66)        -55.5893         estimate D2E/DX2                !
 ! D170  D(36,37,38,28)         53.5312         estimate D2E/DX2                !
 ! D171  D(36,37,38,39)        175.1276         estimate D2E/DX2                !
 ! D172  D(36,37,38,40)        -66.1789         estimate D2E/DX2                !
 ! D173  D(65,37,38,28)        175.4286         estimate D2E/DX2                !
 ! D174  D(65,37,38,39)        -62.9749         estimate D2E/DX2                !
 ! D175  D(65,37,38,40)         55.7186         estimate D2E/DX2                !
 ! D176  D(66,37,38,28)        -67.0626         estimate D2E/DX2                !
 ! D177  D(66,37,38,39)         54.5339         estimate D2E/DX2                !
 ! D178  D(66,37,38,40)        173.2274         estimate D2E/DX2                !
 ! D179  D(28,38,39,67)         50.584          estimate D2E/DX2                !
 ! D180  D(28,38,39,68)        -69.8888         estimate D2E/DX2                !
 ! D181  D(28,38,39,69)        171.2127         estimate D2E/DX2                !
 ! D182  D(37,38,39,67)        -67.8601         estimate D2E/DX2                !
 ! D183  D(37,38,39,68)        171.6672         estimate D2E/DX2                !
 ! D184  D(37,38,39,69)         52.7687         estimate D2E/DX2                !
 ! D185  D(40,38,39,67)        170.7486         estimate D2E/DX2                !
 ! D186  D(40,38,39,68)         50.2759         estimate D2E/DX2                !
 ! D187  D(40,38,39,69)        -68.6226         estimate D2E/DX2                !
 ! D188  D(28,38,40,70)        -58.3873         estimate D2E/DX2                !
 ! D189  D(28,38,40,71)       -179.47           estimate D2E/DX2                !
 ! D190  D(28,38,40,72)         60.8644         estimate D2E/DX2                !
 ! D191  D(37,38,40,70)         60.6705         estimate D2E/DX2                !
 ! D192  D(37,38,40,71)        -60.4122         estimate D2E/DX2                !
 ! D193  D(37,38,40,72)        179.9222         estimate D2E/DX2                !
 ! D194  D(39,38,40,70)        179.0612         estimate D2E/DX2                !
 ! D195  D(39,38,40,71)         57.9785         estimate D2E/DX2                !
 ! D196  D(39,38,40,72)        -61.6871         estimate D2E/DX2                !
 ! D197  D(29,41,42,26)        -14.0528         estimate D2E/DX2                !
 ! D198  D(29,41,42,43)        157.1813         estimate D2E/DX2                !
 ! D199  D(33,41,42,26)        159.5804         estimate D2E/DX2                !
 ! D200  D(33,41,42,43)        -29.1855         estimate D2E/DX2                !
 ! D201  D(26,42,43,2)          14.664          estimate D2E/DX2                !
 ! D202  D(41,42,43,2)        -157.0536         estimate D2E/DX2                !
 --------------------------------------------------------------------------------
 Trust Radius=3.00D-01 FncErr=1.00D-07 GrdErr=1.00D-06 EigMax=2.50D+02 EigMin=1.00D-04
 Number of steps in this run=    426 maximum allowed number of steps=    432.
 GradGradGradGradGradGradGradGradGradGradGradGradGradGradGradGradGradGrad

 Stoichiometry    C34H29N3O4S2
 Framework group  C1[X(C34H29N3O4S2)]
 Deg. of freedom   210
 Full point group                 C1      NOp   1
 Largest Abelian subgroup         C1      NOp   1
 Largest concise Abelian subgroup C1      NOp   1
                         Standard orientation:                         
 ---------------------------------------------------------------------
 Center     Atomic      Atomic             Coordinates (Angstroms)
 Number     Number       Type             X           Y           Z
 ---------------------------------------------------------------------
      1          8           0       -2.519609   -3.317027    1.307230
      2          6           0       -3.012975   -2.399591    0.655155
      3          6           0       -2.133289   -1.324067    0.052294
      4          6           0       -0.653263   -1.326575    0.117078
      5          6           0        0.210177   -0.265857    0.193546
      6          6           0       -0.265103    1.094865    0.352018
      7          7           0       -0.676186    2.183076    0.452191
      8          6           0        1.642829   -0.517197   -0.016591
      9         16           0        2.929612    0.472172    0.633623
     10          6           0        2.223941   -1.483352   -0.823508
     11          6           0        3.655515   -1.445352   -0.874096
     12          6           0        4.218966   -0.414165   -0.146355
     13          6           0        5.654565   -0.063018   -0.036497
     14          6           0        6.229767    0.913849    0.750927
     15          6           0        7.648580    1.060431    0.551642
     16          6           0        8.235414    0.140517   -0.315571
     17          6           0        9.639379   -0.059134   -0.757849
     18          6           0       10.768565    0.250395   -0.041063
     19          6           0       10.494152    0.777243    1.358046
     20          7           0       10.266496    1.214311    2.518735
     21          6           0       12.142530    0.049576   -0.529121
     22          8           0       13.131154    0.396153    0.327420
     23          8           0       12.385237   -0.393461   -1.640979
     24         16           0        6.925774   -0.848396   -0.946061
     25          6           0       -2.754792   -0.465694   -0.759749
     26          6           0       -4.159485   -0.216582   -0.547316
     27          6           0       -4.573482    1.094273   -0.633442
     28          6           0       -5.891581    1.451629   -0.365129
     29          6           0       -6.842610    0.444316   -0.068344
     30          7           0       -8.193164    0.773516    0.115096
     31          6           0       -8.980891   -0.063088    1.025870
     32          6           0       -8.588834   -1.533867    1.065253
     33          6           0       -7.568980   -1.960803   -0.006717
     34          6           0       -7.168970   -3.417851    0.283982
     35          6           0       -8.278004   -1.976702   -1.394545
     36          6           0       -8.603756    2.182590    0.107844
     37          6           0       -7.730301    3.040060   -0.786821
     38          6           0       -6.256222    2.930532   -0.386151
     39          6           0       -5.431117    3.732710   -1.421472
     40          6           0       -5.983110    3.529670    1.010243
     41          6           0       -6.426017   -0.928604   -0.024706
     42          6           0       -5.037383   -1.199356   -0.126093
     43          8           0       -4.407731   -2.381956    0.343603
     44          1           0       -0.253924   -2.344267    0.080639
     45          1           0        1.637490   -2.201472   -1.387328
     46          1           0        4.235084   -2.150104   -1.455305
     47          1           0        5.666150    1.544005    1.430322
     48          1           0        8.187465    1.845369    1.066776
     49          1           0        9.763988   -0.501103   -1.746726
     50          1           0       12.894577    0.748154    1.207249
     51          1           0       -2.235017    0.187154   -1.451250
     52          1           0       -3.819741    1.850337   -0.830537
     53          1           0      -10.039329    0.017683    0.744449
     54          1           0       -8.909514    0.344641    2.043373
     55          1           0       -9.503661   -2.140675    0.992821
     56          1           0       -8.185108   -1.747661    2.064141
     57          1           0       -8.057499   -4.064463    0.309983
     58          1           0       -6.669666   -3.517523    1.252223
     59          1           0       -6.509412   -3.818093   -0.493047
     60          1           0       -9.125256   -2.674996   -1.397672
     61          1           0       -7.588970   -2.288068   -2.187515
     62          1           0       -8.682106   -1.001967   -1.688535
     63          1           0       -8.610394    2.577238    1.130535
     64          1           0       -9.637144    2.247262   -0.254387
     65          1           0       -8.063748    4.083548   -0.737585
     66          1           0       -7.858079    2.714532   -1.828879
     67          1           0       -5.456742    3.252226   -2.407026
     68          1           0       -4.378706    3.828371   -1.127577
     69          1           0       -5.812997    4.752331   -1.529449
     70          1           0       -6.545779    3.025554    1.803280
     71          1           0       -6.242696    4.593494    1.038025
     72          1           0       -4.923150    3.441263    1.281082
 ---------------------------------------------------------------------
 Rotational constants (GHZ):           0.2298956           0.0170471           0.0163285
 Standard basis: 6-311G(d,p) (5D, 7F)
 There are  1007 symmetry adapted cartesian basis functions of A   symmetry.
 There are   964 symmetry adapted basis functions of A   symmetry.
   964 basis functions,  1636 primitive gaussians,  1007 cartesian basis functions
   159 alpha electrons      159 beta electrons
       nuclear repulsion energy      4774.7981626435 Hartrees.
 NAtoms=   72 NActive=   72 NUniq=   72 SFac= 1.00D+00 NAtFMM=   60 NAOKFM=T Big=T
 Integral buffers will be    131072 words long.
 Raffenetti 2 integral format.
 Two-electron integral symmetry is turned on.
 One-electron integrals computed using PRISM.
 NBasis=   964 RedAO= T EigKep=  1.20D-04  NBF=   964
 NBsUse=   964 1.00D-06 EigRej= -1.00D+00 NBFU=   964
 ExpMin= 7.71D-02 ExpMax= 9.34D+04 ExpMxC= 3.17D+03 IAcc=3 IRadAn=         5 AccDes= 0.00D+00
 Harris functional with IExCor=  402 and IRadAn=       5 diagonalized for initial guess.
 HarFok:  IExCor=  402 AccDes= 0.00D+00 IRadAn=         5 IDoV= 1 UseB2=F ITyADJ=14
 ICtDFT=  3500011 ScaDFX=  1.000000  1.000000  1.000000  1.000000
 FoFCou: FMM=F IPFlag=           0 FMFlag=      100000 FMFlg1=        2001
         NFxFlg=           0 DoJE=T BraDBF=F KetDBF=T FulRan=T
         wScrn=  0.000000 ICntrl=       500 IOpCl=  0 I1Cent=   200000004 NGrid=           0
         NMat0=    1 NMatS0=      1 NMatT0=    0 NMatD0=    1 NMtDS0=    0 NMtDT0=    0
 Petite list used in FoFCou.
 Requested convergence on RMS density matrix=1.00D-08 within 128 cycles.
 Requested convergence on MAX density matrix=1.00D-06.
 Requested convergence on             energy=1.00D-06.
 No special actions if energy rises.
 Integral accuracy reduced to 1.0D-05 until final iterations.
 Initial convergence to 1.0D-05 achieved.  Increase integral accuracy.
 SCF Done:  E(RB3LYP) =  -2574.97877340     A.U. after   16 cycles
            NFock= 16  Conv=0.54D-08     -V/T= 2.0038

 **********************************************************************

            Population analysis using the SCF Density.

 **********************************************************************

 Orbital symmetries:
       Occupied  (A) (A) (A) (A) (A) (A) (A) (A) (A) (A) (A) (A)
                 (A) (A) (A) (A) (A) (A) (A) (A) (A) (A) (A) (A)
                 (A) (A) (A) (A) (A) (A) (A) (A) (A) (A) (A) (A)
                 (A) (A) (A) (A) (A) (A) (A) (A) (A) (A) (A) (A)
                 (A) (A) (A) (A) (A) (A) (A) (A) (A) (A) (A) (A)
                 (A) (A) (A) (A) (A) (A) (A) (A) (A) (A) (A) (A)
                 (A) (A) (A) (A) (A) (A) (A) (A) (A) (A) (A) (A)
                 (A) (A) (A) (A) (A) (A) (A) (A) (A) (A) (A) (A)
                 (A) (A) (A) (A) (A) (A) (A) (A) (A) (A) (A) (A)
                 (A) (A) (A) (A) (A) (A) (A) (A) (A) (A) (A) (A)
                 (A) (A) (A) (A) (A) (A) (A) (A) (A) (A) (A) (A)
                 (A) (A) (A) (A) (A) (A) (A) (A) (A) (A) (A) (A)
                 (A) (A) (A) (A) (A) (A) (A) (A) (A) (A) (A) (A)
                 (A) (A) (A)
       Virtual   (A) (A) (A) (A) (A) (A) (A) (A) (A) (A) (A) (A)
                 (A) (A) (A) (A) (A) (A) (A) (A) (A) (A) (A) (A)
                 (A) (A) (A) (A) (A) (A) (A) (A) (A) (A) (A) (A)
                 (A) (A) (A) (A) (A) (A) (A) (A) (A) (A) (A) (A)
                 (A) (A) (A) (A) (A) (A) (A) (A) (A) (A) (A) (A)
                 (A) (A) (A) (A) (A) (A) (A) (A) (A) (A) (A) (A)
                 (A) (A) (A) (A) (A) (A) (A) (A) (A) (A) (A) (A)
                 (A) (A) (A) (A) (A) (A) (A) (A) (A) (A) (A) (A)
                 (A) (A) (A) (A) (A) (A) (A) (A) (A) (A) (A) (A)
                 (A) (A) (A) (A) (A) (A) (A) (A) (A) (A) (A) (A)
                 (A) (A) (A) (A) (A) (A) (A) (A) (A) (A) (A) (A)
                 (A) (A) (A) (A) (A) (A) (A) (A) (A) (A) (A) (A)
                 (A) (A) (A) (A) (A) (A) (A) (A) (A) (A) (A) (A)
                 (A) (A) (A) (A) (A) (A) (A) (A) (A) (A) (A) (A)
                 (A) (A) (A) (A) (A) (A) (A) (A) (A) (A) (A) (A)
                 (A) (A) (A) (A) (A) (A) (A) (A) (A) (A) (A) (A)
                 (A) (A) (A) (A) (A) (A) (A) (A) (A) (A) (A) (A)
                 (A) (A) (A) (A) (A) (A) (A) (A) (A) (A) (A) (A)
                 (A) (A) (A) (A) (A) (A) (A) (A) (A) (A) (A) (A)
                 (A) (A) (A) (A) (A) (A) (A) (A) (A) (A) (A) (A)
                 (A) (A) (A) (A) (A) (A) (A) (A) (A) (A) (A) (A)
                 (A) (A) (A) (A) (A) (A) (A) (A) (A) (A) (A) (A)
                 (A) (A) (A) (A) (A) (A) (A) (A) (A) (A) (A) (A)
                 (A) (A) (A) (A) (A) (A) (A) (A) (A) (A) (A) (A)
                 (A) (A) (A) (A) (A) (A) (A) (A) (A) (A) (A) (A)
                 (A) (A) (A) (A) (A) (A) (A) (A) (A) (A) (A) (A)
                 (A) (A) (A) (A) (A) (A) (A) (A) (A) (A) (A) (A)
                 (A) (A) (A) (A) (A) (A) (A) (A) (A) (A) (A) (A)
                 (A) (A) (A) (A) (A) (A) (A) (A) (A) (A) (A) (A)
                 (A) (A) (A) (A) (A) (A) (A) (A) (A) (A) (A) (A)
                 (A) (A) (A) (A) (A) (A) (A) (A) (A) (A) (A) (A)
                 (A) (A) (A) (A) (A) (A) (A) (A) (A) (A) (A) (A)
                 (A) (A) (A) (A) (A) (A) (A) (A) (A) (A) (A) (A)
                 (A) (A) (A) (A) (A) (A) (A) (A) (A) (A) (A) (A)
                 (A) (A) (A) (A) (A) (A) (A) (A) (A) (A) (A) (A)
                 (A) (A) (A) (A) (A) (A) (A) (A) (A) (A) (A) (A)
                 (A) (A) (A) (A) (A) (A) (A) (A) (A) (A) (A) (A)
                 (A) (A) (A) (A) (A) (A) (A) (A) (A) (A) (A) (A)
                 (A) (A) (A) (A) (A) (A) (A) (A) (A) (A) (A) (A)
                 (A) (A) (A) (A) (A) (A) (A) (A) (A) (A) (A) (A)
                 (A) (A) (A) (A) (A) (A) (A) (A) (A) (A) (A) (A)
                 (A) (A) (A) (A) (A) (A) (A) (A) (A) (A) (A) (A)
                 (A) (A) (A) (A) (A) (A) (A) (A) (A) (A) (A) (A)
                 (A) (A) (A) (A) (A) (A) (A) (A) (A) (A) (A) (A)
                 (A) (A) (A) (A) (A) (A) (A) (A) (A) (A) (A) (A)
                 (A) (A) (A) (A) (A) (A) (A) (A) (A) (A) (A) (A)
                 (A) (A) (A) (A) (A) (A) (A) (A) (A) (A) (A) (A)
                 (A) (A) (A) (A) (A) (A) (A) (A) (A) (A) (A) (A)
                 (A) (A) (A) (A) (A) (A) (A) (A) (A) (A) (A) (A)
                 (A) (A) (A) (A) (A) (A) (A) (A) (A) (A) (A) (A)
                 (A) (A) (A) (A) (A) (A) (A) (A) (A) (A) (A) (A)
                 (A) (A) (A) (A) (A) (A) (A) (A) (A) (A) (A) (A)
                 (A) (A) (A) (A) (A) (A) (A) (A) (A) (A) (A) (A)
                 (A) (A) (A) (A) (A) (A) (A) (A) (A) (A) (A) (A)
                 (A) (A) (A) (A) (A) (A) (A) (A) (A) (A) (A) (A)
                 (A) (A) (A) (A) (A) (A) (A) (A) (A) (A) (A) (A)
                 (A) (A) (A) (A) (A) (A) (A) (A) (A) (A) (A) (A)
                 (A) (A) (A) (A) (A) (A) (A) (A) (A) (A) (A) (A)
                 (A) (A) (A) (A) (A) (A) (A) (A) (A) (A) (A) (A)
                 (A) (A) (A) (A) (A) (A) (A) (A) (A) (A) (A) (A)
                 (A) (A) (A) (A) (A) (A) (A) (A) (A) (A) (A) (A)
                 (A) (A) (A) (A) (A) (A) (A) (A) (A) (A) (A) (A)
                 (A) (A) (A) (A) (A) (A) (A) (A) (A) (A) (A) (A)
                 (A) (A) (A) (A) (A) (A) (A) (A) (A) (A) (A) (A)
                 (A) (A) (A) (A) (A) (A) (A) (A) (A) (A) (A) (A)
                 (A) (A) (A) (A) (A) (A) (A) (A) (A) (A) (A) (A)
                 (A) (A) (A) (A) (A) (A) (A) (A) (A) (A) (A) (A)
                 (A)
 The electronic state is 1-A.
 Alpha  occ. eigenvalues --  -88.90652 -88.90419 -19.18896 -19.17967 -19.12088
 Alpha  occ. eigenvalues --  -19.11979 -14.35964 -14.34716 -14.33191 -10.33248
 Alpha  occ. eigenvalues --  -10.32654 -10.26282 -10.26075 -10.25930 -10.25770
 Alpha  occ. eigenvalues --  -10.25750 -10.25679 -10.25046 -10.24965 -10.24718
 Alpha  occ. eigenvalues --  -10.23567 -10.23277 -10.23244 -10.21882 -10.21754
 Alpha  occ. eigenvalues --  -10.21642 -10.21576 -10.21549 -10.21019 -10.20966
 Alpha  occ. eigenvalues --  -10.20922 -10.20675 -10.20240 -10.20159 -10.19028
 Alpha  occ. eigenvalues --  -10.18823 -10.18490 -10.18449 -10.18115 -10.17004
 Alpha  occ. eigenvalues --  -10.16985 -10.16562 -10.16034  -7.99271  -7.99035
 Alpha  occ. eigenvalues --   -5.95587  -5.95347  -5.95194  -5.94952  -5.94833
 Alpha  occ. eigenvalues --   -5.94604  -1.11468  -1.10066  -1.03352  -1.03229
 Alpha  occ. eigenvalues --   -0.97108  -0.93124  -0.92411  -0.91026  -0.89841
 Alpha  occ. eigenvalues --   -0.88533  -0.86458  -0.85513  -0.85007  -0.83561
 Alpha  occ. eigenvalues --   -0.81683  -0.78978  -0.77531  -0.77391  -0.76764
 Alpha  occ. eigenvalues --   -0.75934  -0.74555  -0.73711  -0.71879  -0.69891
 Alpha  occ. eigenvalues --   -0.69737  -0.69173  -0.68851  -0.66205  -0.65476
 Alpha  occ. eigenvalues --   -0.64821  -0.64644  -0.63810  -0.62920  -0.61179
 Alpha  occ. eigenvalues --   -0.60420  -0.59127  -0.58957  -0.57467  -0.55946
 Alpha  occ. eigenvalues --   -0.55483  -0.54822  -0.54227  -0.53392  -0.52568
 Alpha  occ. eigenvalues --   -0.50948  -0.50808  -0.49966  -0.49477  -0.49013
 Alpha  occ. eigenvalues --   -0.48173  -0.47445  -0.46969  -0.46909  -0.46359
 Alpha  occ. eigenvalues --   -0.46105  -0.45890  -0.45442  -0.45154  -0.45034
 Alpha  occ. eigenvalues --   -0.44265  -0.43862  -0.43626  -0.43066  -0.43004
 Alpha  occ. eigenvalues --   -0.42767  -0.42342  -0.41877  -0.41690  -0.41389
 Alpha  occ. eigenvalues --   -0.40990  -0.40854  -0.40311  -0.39902  -0.39652
 Alpha  occ. eigenvalues --   -0.39198  -0.39024  -0.38782  -0.38547  -0.38318
 Alpha  occ. eigenvalues --   -0.38121  -0.37615  -0.37594  -0.37319  -0.37172
 Alpha  occ. eigenvalues --   -0.36501  -0.36266  -0.36077  -0.35566  -0.35415
 Alpha  occ. eigenvalues --   -0.34793  -0.34630  -0.34031  -0.33870  -0.33053
 Alpha  occ. eigenvalues --   -0.32985  -0.32680  -0.32631  -0.32114  -0.30986
 Alpha  occ. eigenvalues --   -0.29989  -0.29068  -0.28820  -0.28431  -0.27794
 Alpha  occ. eigenvalues --   -0.27000  -0.24346  -0.23453  -0.20762
 Alpha virt. eigenvalues --   -0.12306  -0.10130  -0.06531  -0.05380  -0.03471
 Alpha virt. eigenvalues --   -0.03090  -0.01773  -0.01299  -0.01160  -0.00499
 Alpha virt. eigenvalues --   -0.00322   0.01126   0.01901   0.02100   0.02604
 Alpha virt. eigenvalues --    0.02974   0.03672   0.03732   0.04720   0.04932
 Alpha virt. eigenvalues --    0.05023   0.05462   0.05647   0.06141   0.06578
 Alpha virt. eigenvalues --    0.07012   0.07374   0.07799   0.07984   0.08689
 Alpha virt. eigenvalues --    0.08999   0.09137   0.09466   0.09761   0.09937
 Alpha virt. eigenvalues --    0.10446   0.10786   0.10834   0.11044   0.11776
 Alpha virt. eigenvalues --    0.11991   0.12564   0.12737   0.13253   0.13572
 Alpha virt. eigenvalues --    0.13775   0.14247   0.14415   0.14741   0.15036
 Alpha virt. eigenvalues --    0.15180   0.15931   0.16011   0.16193   0.16336
 Alpha virt. eigenvalues --    0.16553   0.17591   0.17854   0.18074   0.18603
 Alpha virt. eigenvalues --    0.19216   0.19292   0.19592   0.20192   0.20520
 Alpha virt. eigenvalues --    0.20969   0.21438   0.21593   0.22035   0.22229
 Alpha virt. eigenvalues --    0.22574   0.23295   0.24374   0.25016   0.25373
 Alpha virt. eigenvalues --    0.26000   0.26074   0.26566   0.27195   0.27603
 Alpha virt. eigenvalues --    0.28104   0.28580   0.28997   0.29144   0.29810
 Alpha virt. eigenvalues --    0.29931   0.30344   0.30852   0.31269   0.31549
 Alpha virt. eigenvalues --    0.31889   0.32424   0.32653   0.32858   0.33249
 Alpha virt. eigenvalues --    0.33504   0.33829   0.34093   0.34505   0.34724
 Alpha virt. eigenvalues --    0.35243   0.35639   0.35905   0.36172   0.36589
 Alpha virt. eigenvalues --    0.37022   0.37202   0.37418   0.37482   0.37748
 Alpha virt. eigenvalues --    0.38478   0.38674   0.38718   0.39135   0.39413
 Alpha virt. eigenvalues --    0.39858   0.40138   0.40368   0.40426   0.40684
 Alpha virt. eigenvalues --    0.40853   0.41400   0.41857   0.42311   0.43043
 Alpha virt. eigenvalues --    0.43216   0.43629   0.44066   0.44339   0.44546
 Alpha virt. eigenvalues --    0.44834   0.45220   0.45409   0.45775   0.45859
 Alpha virt. eigenvalues --    0.46166   0.46386   0.46803   0.47202   0.47357
 Alpha virt. eigenvalues --    0.48107   0.48731   0.48857   0.49127   0.49673
 Alpha virt. eigenvalues --    0.49904   0.50191   0.50720   0.51049   0.51294
 Alpha virt. eigenvalues --    0.51532   0.52026   0.52768   0.52971   0.53335
 Alpha virt. eigenvalues --    0.53631   0.53851   0.53896   0.54223   0.54359
 Alpha virt. eigenvalues --    0.54885   0.55270   0.55725   0.56147   0.56202
 Alpha virt. eigenvalues --    0.56528   0.56746   0.57069   0.57171   0.57316
 Alpha virt. eigenvalues --    0.57596   0.57824   0.58075   0.58226   0.58373
 Alpha virt. eigenvalues --    0.58672   0.58822   0.58986   0.59500   0.59823
 Alpha virt. eigenvalues --    0.59977   0.60306   0.60525   0.60879   0.60975
 Alpha virt. eigenvalues --    0.61442   0.61556   0.61964   0.62143   0.62417
 Alpha virt. eigenvalues --    0.62705   0.62737   0.62790   0.63246   0.63760
 Alpha virt. eigenvalues --    0.63978   0.64457   0.65001   0.65035   0.65236
 Alpha virt. eigenvalues --    0.65535   0.65657   0.65894   0.66603   0.66818
 Alpha virt. eigenvalues --    0.67143   0.67355   0.68104   0.69093   0.69317
 Alpha virt. eigenvalues --    0.69567   0.69795   0.70413   0.70789   0.71026
 Alpha virt. eigenvalues --    0.71492   0.71868   0.72038   0.72593   0.72895
 Alpha virt. eigenvalues --    0.73071   0.73842   0.74374   0.74691   0.74953
 Alpha virt. eigenvalues --    0.75389   0.75853   0.76488   0.76988   0.77458
 Alpha virt. eigenvalues --    0.77816   0.78145   0.78523   0.79249   0.79590
 Alpha virt. eigenvalues --    0.80044   0.80637   0.80905   0.81494   0.81625
 Alpha virt. eigenvalues --    0.81979   0.82623   0.82885   0.83167   0.83417
 Alpha virt. eigenvalues --    0.84075   0.84865   0.85645   0.86111   0.86813
 Alpha virt. eigenvalues --    0.86957   0.87446   0.87788   0.88034   0.88842
 Alpha virt. eigenvalues --    0.89542   0.90585   0.90819   0.91247   0.91797
 Alpha virt. eigenvalues --    0.92183   0.92667   0.92871   0.93585   0.93783
 Alpha virt. eigenvalues --    0.94260   0.95248   0.95504   0.96478   0.96899
 Alpha virt. eigenvalues --    0.98293   0.98853   0.99143   0.99210   1.00761
 Alpha virt. eigenvalues --    1.01025   1.01445   1.01479   1.02825   1.03548
 Alpha virt. eigenvalues --    1.03702   1.04888   1.05643   1.05782   1.06482
 Alpha virt. eigenvalues --    1.06792   1.07367   1.07491   1.07723   1.08549
 Alpha virt. eigenvalues --    1.09284   1.10015   1.10527   1.10860   1.10987
 Alpha virt. eigenvalues --    1.11720   1.12592   1.13152   1.13867   1.14467
 Alpha virt. eigenvalues --    1.15455   1.15640   1.16197   1.16992   1.17292
 Alpha virt. eigenvalues --    1.18096   1.19896   1.20975   1.21139   1.21587
 Alpha virt. eigenvalues --    1.22067   1.22567   1.23045   1.24364   1.24681
 Alpha virt. eigenvalues --    1.25329   1.25808   1.26268   1.26608   1.27146
 Alpha virt. eigenvalues --    1.28824   1.29588   1.29968   1.30718   1.31116
 Alpha virt. eigenvalues --    1.31638   1.31683   1.33556   1.34047   1.34337
 Alpha virt. eigenvalues --    1.34603   1.35496   1.35805   1.37012   1.37642
 Alpha virt. eigenvalues --    1.37867   1.38472   1.39747   1.39884   1.40180
 Alpha virt. eigenvalues --    1.40556   1.40738   1.41935   1.41945   1.42463
 Alpha virt. eigenvalues --    1.42793   1.43573   1.44221   1.44930   1.45571
 Alpha virt. eigenvalues --    1.45813   1.45905   1.46290   1.46432   1.47164
 Alpha virt. eigenvalues --    1.47495   1.47792   1.47894   1.48718   1.48850
 Alpha virt. eigenvalues --    1.48942   1.49275   1.49334   1.49635   1.50411
 Alpha virt. eigenvalues --    1.50968   1.51296   1.51803   1.51936   1.52692
 Alpha virt. eigenvalues --    1.52937   1.53066   1.53273   1.53597   1.53668
 Alpha virt. eigenvalues --    1.54107   1.54487   1.54949   1.55514   1.55700
 Alpha virt. eigenvalues --    1.56092   1.56334   1.56626   1.57046   1.57500
 Alpha virt. eigenvalues --    1.58058   1.58713   1.58774   1.59579   1.59838
 Alpha virt. eigenvalues --    1.60538   1.60669   1.61457   1.61766   1.62083
 Alpha virt. eigenvalues --    1.62754   1.62967   1.63492   1.63830   1.64297
 Alpha virt. eigenvalues --    1.64558   1.65150   1.65502   1.65807   1.66239
 Alpha virt. eigenvalues --    1.66565   1.67259   1.67773   1.68141   1.68821
 Alpha virt. eigenvalues --    1.68862   1.69139   1.69625   1.69936   1.70417
 Alpha virt. eigenvalues --    1.70720   1.71101   1.71319   1.71445   1.71971
 Alpha virt. eigenvalues --    1.72553   1.73349   1.73817   1.74351   1.74628
 Alpha virt. eigenvalues --    1.75253   1.75519   1.76159   1.76413   1.77127
 Alpha virt. eigenvalues --    1.77423   1.78020   1.78274   1.78791   1.80479
 Alpha virt. eigenvalues --    1.80675   1.81339   1.81746   1.81896   1.82991
 Alpha virt. eigenvalues --    1.83279   1.83998   1.84629   1.84966   1.85385
 Alpha virt. eigenvalues --    1.86001   1.86628   1.86974   1.87397   1.88105
 Alpha virt. eigenvalues --    1.89037   1.89716   1.90227   1.90790   1.91753
 Alpha virt. eigenvalues --    1.91986   1.92467   1.93215   1.93949   1.94034
 Alpha virt. eigenvalues --    1.94101   1.94524   1.94784   1.95831   1.96382
 Alpha virt. eigenvalues --    1.96802   1.97850   1.98198   1.99106   1.99373
 Alpha virt. eigenvalues --    2.00263   2.00774   2.01202   2.01430   2.02061
 Alpha virt. eigenvalues --    2.02847   2.03737   2.04253   2.04639   2.04943
 Alpha virt. eigenvalues --    2.05262   2.05839   2.06182   2.06599   2.06985
 Alpha virt. eigenvalues --    2.08373   2.08642   2.09080   2.09651   2.10135
 Alpha virt. eigenvalues --    2.10479   2.11115   2.11772   2.13200   2.13618
 Alpha virt. eigenvalues --    2.14984   2.15352   2.15726   2.16889   2.17276
 Alpha virt. eigenvalues --    2.17630   2.17881   2.18345   2.18692   2.19898
 Alpha virt. eigenvalues --    2.20481   2.21088   2.21641   2.22051   2.23642
 Alpha virt. eigenvalues --    2.23964   2.24815   2.24971   2.26052   2.27048
 Alpha virt. eigenvalues --    2.27318   2.28236   2.29345   2.29723   2.31025
 Alpha virt. eigenvalues --    2.31151   2.32011   2.33194   2.33709   2.34958
 Alpha virt. eigenvalues --    2.35775   2.35859   2.37639   2.38247   2.39002
 Alpha virt. eigenvalues --    2.39351   2.40337   2.40928   2.40991   2.41815
 Alpha virt. eigenvalues --    2.43154   2.43357   2.43966   2.45236   2.46269
 Alpha virt. eigenvalues --    2.46859   2.47040   2.47493   2.47789   2.48152
 Alpha virt. eigenvalues --    2.49040   2.49731   2.49990   2.50376   2.50707
 Alpha virt. eigenvalues --    2.51600   2.51905   2.52235   2.53148   2.53684
 Alpha virt. eigenvalues --    2.54180   2.54453   2.54598   2.54966   2.55239
 Alpha virt. eigenvalues --    2.56615   2.57342   2.57811   2.57856   2.58792
 Alpha virt. eigenvalues --    2.59432   2.59725   2.59798   2.59896   2.60202
 Alpha virt. eigenvalues --    2.60308   2.61256   2.61840   2.62622   2.62952
 Alpha virt. eigenvalues --    2.63717   2.64056   2.64152   2.64724   2.65324
 Alpha virt. eigenvalues --    2.66173   2.66457   2.66740   2.67738   2.67970
 Alpha virt. eigenvalues --    2.68792   2.69013   2.69843   2.71246   2.71979
 Alpha virt. eigenvalues --    2.72123   2.73133   2.73626   2.74207   2.74339
 Alpha virt. eigenvalues --    2.74891   2.75261   2.75595   2.77386   2.77625
 Alpha virt. eigenvalues --    2.77760   2.79196   2.80046   2.80419   2.81302
 Alpha virt. eigenvalues --    2.81910   2.82469   2.82684   2.84286   2.84659
 Alpha virt. eigenvalues --    2.84910   2.85501   2.85663   2.85951   2.87060
 Alpha virt. eigenvalues --    2.87353   2.88686   2.89177   2.89448   2.89791
 Alpha virt. eigenvalues --    2.90267   2.90478   2.90772   2.91696   2.92518
 Alpha virt. eigenvalues --    2.93224   2.94373   2.94694   2.96078   2.96699
 Alpha virt. eigenvalues --    2.97229   2.97546   2.98063   2.99330   2.99723
 Alpha virt. eigenvalues --    2.99950   3.00921   3.01332   3.02238   3.03007
 Alpha virt. eigenvalues --    3.03654   3.04338   3.06248   3.06722   3.07396
 Alpha virt. eigenvalues --    3.08765   3.09611   3.09897   3.11621   3.12474
 Alpha virt. eigenvalues --    3.13041   3.13144   3.13906   3.15041   3.16676
 Alpha virt. eigenvalues --    3.17096   3.17486   3.17980   3.18845   3.21139
 Alpha virt. eigenvalues --    3.22160   3.23187   3.24363   3.25237   3.26778
 Alpha virt. eigenvalues --    3.27062   3.28636   3.29704   3.30190   3.30745
 Alpha virt. eigenvalues --    3.31223   3.31714   3.31931   3.32992   3.34559
 Alpha virt. eigenvalues --    3.40029   3.42066   3.44399   3.47593   3.48284
 Alpha virt. eigenvalues --    3.49361   3.50441   3.51294   3.52784   3.53370
 Alpha virt. eigenvalues --    3.55892   3.56134   3.58291   3.60544   3.61207
 Alpha virt. eigenvalues --    3.62647   3.67910   3.68036   3.69885   3.73821
 Alpha virt. eigenvalues --    3.76080   3.76721   3.77637   3.78037   3.78127
 Alpha virt. eigenvalues --    3.78653   3.79007   3.79342   3.80371   3.80681
 Alpha virt. eigenvalues --    3.81189   3.81467   3.82774   3.83122   3.84174
 Alpha virt. eigenvalues --    3.85712   3.86024   3.87695   3.92859   3.94582
 Alpha virt. eigenvalues --    3.96707   3.98577   4.01668   4.06395   4.09517
 Alpha virt. eigenvalues --    4.11966   4.12410   4.13400   4.14671   4.15971
 Alpha virt. eigenvalues --    4.17606   4.21030   4.22262   4.24468   4.28304
 Alpha virt. eigenvalues --    4.31576   4.32131   4.32324   4.34174   4.41722
 Alpha virt. eigenvalues --    4.44983   4.45150   4.48268   4.59255   4.76713
 Alpha virt. eigenvalues --    4.83827   4.87102   4.88706   4.90984   4.92714
 Alpha virt. eigenvalues --    4.97958   5.00095   5.05097   5.21022   5.26532
 Alpha virt. eigenvalues --    5.52938   5.53814   5.79255   5.79794   7.75090
 Alpha virt. eigenvalues --    7.76681  17.16979  17.18682  17.41792  17.43125
 Alpha virt. eigenvalues --   17.46801  17.51189  23.39197  23.43737  23.50266
 Alpha virt. eigenvalues --   23.58637  23.65761  23.69031  23.72217  23.72443
 Alpha virt. eigenvalues --   23.75863  23.76199  23.76481  23.77574  23.80668
 Alpha virt. eigenvalues --   23.84596  23.85537  23.89002  23.89781  23.91058
 Alpha virt. eigenvalues --   23.93089  23.94031  23.94615  23.95656  23.96565
 Alpha virt. eigenvalues --   24.00040  24.00279  24.01581  24.02517  24.04926
 Alpha virt. eigenvalues --   24.05061  24.06020  24.07059  24.16193  24.23205
 Alpha virt. eigenvalues --   24.32921  35.57910  35.60485  35.78414  49.82970
 Alpha virt. eigenvalues --   49.85715  49.96753  49.98381 188.86783 188.88409
          Condensed to atoms (all electrons):
 Mulliken charges:
               1
     1  O   -0.310199
     2  C    0.432373
     3  C   -0.237835
     4  C   -0.003280
     5  C    0.050301
     6  C    0.026201
     7  N   -0.225788
     8  C   -0.255022
     9  S    0.355276
    10  C   -0.035976
    11  C   -0.045742
    12  C   -0.221016
    13  C   -0.198322
    14  C   -0.043517
    15  C   -0.015544
    16  C   -0.285051
    17  C    0.067315
    18  C   -0.171754
    19  C    0.002580
    20  N   -0.240986
    21  C    0.480115
    22  O   -0.322664
    23  O   -0.316940
    24  S    0.331350
    25  C    0.058732
    26  C   -0.108486
    27  C   -0.026162
    28  C   -0.062044
    29  C    0.347582
    30  N   -0.496903
    31  C   -0.028943
    32  C   -0.190861
    33  C   -0.262900
    34  C   -0.218907
    35  C   -0.222545
    36  C   -0.023130
    37  C   -0.191491
    38  C   -0.269376
    39  C   -0.251466
    40  C   -0.203015
    41  C   -0.024743
    42  C    0.200297
    43  O   -0.368091
    44  H    0.135686
    45  H    0.111140
    46  H    0.115249
    47  H    0.121194
    48  H    0.135215
    49  H    0.150092
    50  H    0.272543
    51  H    0.130310
    52  H    0.104268
    53  H    0.114009
    54  H    0.107667
    55  H    0.117010
    56  H    0.122304
    57  H    0.098451
    58  H    0.119565
    59  H    0.113529
    60  H    0.103518
    61  H    0.109241
    62  H    0.115521
    63  H    0.108124
    64  H    0.119075
    65  H    0.115131
    66  H    0.124398
    67  H    0.112316
    68  H    0.115123
    69  H    0.108077
    70  H    0.103539
    71  H    0.103630
    72  H    0.120652
 Sum of Mulliken charges =  -0.00000
 Mulliken charges with hydrogens summed into heavy atoms:
               1
     1  O   -0.310199
     2  C    0.432373
     3  C   -0.237835
     4  C    0.132406
     5  C    0.050301
     6  C    0.026201
     7  N   -0.225788
     8  C   -0.255022
     9  S    0.355276
    10  C    0.075164
    11  C    0.069507
    12  C   -0.221016
    13  C   -0.198322
    14  C    0.077677
    15  C    0.119671
    16  C   -0.285051
    17  C    0.217408
    18  C   -0.171754
    19  C    0.002580
    20  N   -0.240986
    21  C    0.480115
    22  O   -0.050121
    23  O   -0.316940
    24  S    0.331350
    25  C    0.189043
    26  C   -0.108486
    27  C    0.078107
    28  C   -0.062044
    29  C    0.347582
    30  N   -0.496903
    31  C    0.192733
    32  C    0.048453
    33  C   -0.262900
    34  C    0.112638
    35  C    0.105735
    36  C    0.204069
    37  C    0.048037
    38  C   -0.269376
    39  C    0.084049
    40  C    0.124806
    41  C   -0.024743
    42  C    0.200297
    43  O   -0.368091
 Electronic spatial extent (au):  <R**2>=          60023.0783
 Charge=              0.0000 electrons
 Dipole moment (field-independent basis, Debye):
    X=             -8.9830    Y=              1.8515    Z=             -2.1165  Tot=              9.4129
 Quadrupole moment (field-independent basis, Debye-Ang):
   XX=           -285.5124   YY=           -273.9318   ZZ=           -276.0839
   XY=            -11.2843   XZ=              8.0127   YZ=              5.8102
 Traceless Quadrupole moment (field-independent basis, Debye-Ang):
   XX=             -7.0030   YY=              4.5776   ZZ=              2.4255
   XY=            -11.2843   XZ=              8.0127   YZ=              5.8102
 Octapole moment (field-independent basis, Debye-Ang**2):
  XXX=          -1665.5213  YYY=             32.6190  ZZZ=            -15.7098  XYY=              2.4002
  XXY=            170.5023  XXZ=            231.8001  XZZ=            -78.7415  YZZ=             -6.7095
  YYZ=            -37.0592  XYZ=            -13.9879
 Hexadecapole moment (field-independent basis, Debye-Ang**3):
 XXXX=         -87149.2420 YYYY=          -5218.8834 ZZZZ=          -1588.9075 XXXY=            849.4963
 XXXZ=           2795.4795 YYYX=           -254.7816 YYYZ=             71.3361 ZZZX=           -253.2511
 ZZZY=            -29.5023 XXYY=         -13062.8550 XXZZ=         -13877.4196 YYZZ=          -1137.1978
 XXYZ=           -213.2011 YYXZ=             20.8883 ZZXY=            -80.0152
 N-N= 4.774798162644D+03 E-N=-1.558077818813D+04  KE= 2.565331762428D+03
 Calling FoFJK, ICntrl=      2127 FMM=T ISym2X=0 I1Cent= 0 IOpClX= 0 NMat=1 NMatS=1 NMatT=0.
 ***** Axes restored to original set *****
 -------------------------------------------------------------------
 Center     Atomic                   Forces (Hartrees/Bohr)
 Number     Number              X              Y              Z
 -------------------------------------------------------------------
      1        8           0.033830045    0.009865228   -0.032444535
      2        6          -0.021558756   -0.014217507    0.023866841
      3        6          -0.015332534   -0.006611937   -0.000384934
      4        6          -0.017351228    0.019381626   -0.005930438
      5        6          -0.004003704    0.004841317   -0.008769140
      6        6           0.012384686    0.003971321   -0.001926171
      7        7          -0.025988957   -0.006080142    0.001549608
      8        6          -0.004612837   -0.021225885    0.001016583
      9       16           0.015047025    0.002834754    0.012736112
     10        6          -0.004775158   -0.005274407    0.004475814
     11        6           0.003125888    0.011849373   -0.007578656
     12        6          -0.010511080   -0.009407158   -0.001465680
     13        6           0.003517137    0.008845804    0.000463007
     14        6           0.002497941   -0.022652527    0.005926515
     15        6           0.002083447    0.016242372    0.002784917
     16        6           0.007992060   -0.000035300    0.003387580
     17        6           0.006395520    0.018349207   -0.004292339
     18        6           0.023426812    0.059849803    0.018024055
     19        6           0.041638487    0.064474846    0.099008122
     20        7          -0.060197068   -0.105076172   -0.124260488
     21        6          -0.006236275   -0.017206446   -0.009761520
     22        8          -0.003350473   -0.009216773    0.002974945
     23        8           0.010858442    0.017877082    0.024207327
     24       16          -0.014171014   -0.003467007   -0.017379014
     25        6           0.023174544    0.018076423    0.000733400
     26        6           0.002439561   -0.019233604   -0.005228744
     27        6           0.015626046    0.012253978   -0.014828283
     28        6           0.004531715   -0.014936802    0.005729311
     29        6          -0.002028580   -0.005703089   -0.003231977
     30        7          -0.008115118   -0.008829997    0.004009689
     31        6           0.009650984    0.007410748   -0.004959806
     32        6          -0.005999048    0.006748779    0.007404971
     33        6          -0.006084908    0.006340957   -0.003846099
     34        6          -0.004213176   -0.002645751    0.005061035
     35        6           0.005943181   -0.004138632   -0.005303953
     36        6          -0.001340452    0.003934695   -0.005167700
     37        6          -0.000318802    0.002437353   -0.000743836
     38        6           0.005673299   -0.005388126    0.000422444
     39        6          -0.003906890   -0.005128910    0.001387904
     40        6           0.001968635    0.003352710    0.004904739
     41        6          -0.008446389    0.002122800   -0.001902889
     42        6          -0.008712685    0.008174263    0.016057173
     43        8           0.000571493   -0.007853963    0.004147523
     44        1           0.005830922   -0.003822693    0.008226650
     45        1           0.001127777   -0.001106346    0.001675223
     46        1           0.000105771   -0.000394513   -0.000213611
     47        1          -0.000288590   -0.002235109   -0.000886946
     48        1          -0.003312049   -0.001343571   -0.000939334
     49        1          -0.001164864   -0.000984338    0.004968411
     50        1          -0.002679807    0.001905327   -0.015911740
     51        1           0.002270559   -0.000324861    0.005910041
     52        1          -0.000181329    0.002131888   -0.004695487
     53        1           0.003229665   -0.004311659    0.000362312
     54        1           0.002703075    0.000194619    0.001095569
[...]
 Alpha virt. eigenvalues --    0.18906   0.19114   0.19746   0.20287   0.20706
 Alpha virt. eigenvalues --    0.20882   0.21241   0.22088   0.22623   0.22809
 Alpha virt. eigenvalues --    0.23370   0.23696   0.24081   0.24876   0.25189
 Alpha virt. eigenvalues --    0.25823   0.26533   0.27122   0.27323   0.27892
 Alpha virt. eigenvalues --    0.28184   0.28916   0.28992   0.30140   0.30295
 Alpha virt. eigenvalues --    0.30999   0.31107   0.31659   0.32072   0.32377
 Alpha virt. eigenvalues --    0.32761   0.33052   0.33511   0.33535   0.33879
 Alpha virt. eigenvalues --    0.34391   0.34827   0.34913   0.35091   0.35531
 Alpha virt. eigenvalues --    0.35775   0.36122   0.36531   0.36709   0.37260
 Alpha virt. eigenvalues --    0.37502   0.37953   0.38057   0.38212   0.38451
 Alpha virt. eigenvalues --    0.38788   0.39165   0.39367   0.39430   0.39867
 Alpha virt. eigenvalues --    0.39999   0.40091   0.40870   0.41155   0.41436
 Alpha virt. eigenvalues --    0.41525   0.41782   0.42093   0.42317   0.42553
 Alpha virt. eigenvalues --    0.43188   0.43587   0.43791   0.44209   0.44380
 Alpha virt. eigenvalues --    0.44799   0.45344   0.45586   0.45935   0.46363
 Alpha virt. eigenvalues --    0.46750   0.47046   0.47236   0.47308   0.47643
 Alpha virt. eigenvalues --    0.48111   0.48251   0.48611   0.49041   0.49507
 Alpha virt. eigenvalues --    0.50231   0.50477   0.50754   0.51040   0.51389
 Alpha virt. eigenvalues --    0.51574   0.52003   0.52780   0.53287   0.53717
 Alpha virt. eigenvalues --    0.54051   0.54292   0.54692   0.55045   0.55146
 Alpha virt. eigenvalues --    0.55291   0.55633   0.55691   0.55999   0.56410
 Alpha virt. eigenvalues --    0.56545   0.56851   0.57026   0.57171   0.57505
 Alpha virt. eigenvalues --    0.58027   0.58086   0.58598   0.58743   0.58995
 Alpha virt. eigenvalues --    0.59195   0.59262   0.59502   0.60173   0.60458
 Alpha virt. eigenvalues --    0.60569   0.60747   0.61050   0.61290   0.61386
 Alpha virt. eigenvalues --    0.62048   0.62197   0.62440   0.62671   0.63065
 Alpha virt. eigenvalues --    0.63413   0.63528   0.63916   0.64056   0.64267
 Alpha virt. eigenvalues --    0.64614   0.64994   0.65001   0.65216   0.65841
 Alpha virt. eigenvalues --    0.66541   0.66896   0.67648   0.68267   0.68436
 Alpha virt. eigenvalues --    0.68850   0.69349   0.70037   0.70298   0.70746
 Alpha virt. eigenvalues --    0.71241   0.71846   0.71983   0.72291   0.72392
 Alpha virt. eigenvalues --    0.73200   0.73913   0.74408   0.74879   0.75544
 Alpha virt. eigenvalues --    0.75631   0.75838   0.76815   0.77170   0.77438
 Alpha virt. eigenvalues --    0.77828   0.78618   0.79361   0.79532   0.79904
 Alpha virt. eigenvalues --    0.80427   0.80806   0.80952   0.81391   0.82350
 Alpha virt. eigenvalues --    0.82593   0.82728   0.83050   0.83945   0.84135
 Alpha virt. eigenvalues --    0.84391   0.85437   0.85876   0.86212   0.86486
 Alpha virt. eigenvalues --    0.86749   0.87380   0.87988   0.88966   0.89625
 Alpha virt. eigenvalues --    0.89874   0.90060   0.90711   0.91299   0.91723
 Alpha virt. eigenvalues --    0.92033   0.92330   0.92495   0.93584   0.94385
 Alpha virt. eigenvalues --    0.94734   0.95247   0.95522   0.96235   0.96706
 Alpha virt. eigenvalues --    0.97162   0.97621   0.98391   0.98846   0.99467
 Alpha virt. eigenvalues --    0.99736   0.99921   1.00628   1.01241   1.02207
 Alpha virt. eigenvalues --    1.02553   1.02857   1.03207   1.03670   1.03771
 Alpha virt. eigenvalues --    1.04022   1.04352   1.04897   1.05354   1.05573
 Alpha virt. eigenvalues --    1.06594   1.07489   1.07727   1.08017   1.08579
 Alpha virt. eigenvalues --    1.09597   1.09966   1.10545   1.10799   1.11417
 Alpha virt. eigenvalues --    1.11861   1.12123   1.12820   1.13368   1.14864
 Alpha virt. eigenvalues --    1.15618   1.16870   1.17321   1.17683   1.18417
 Alpha virt. eigenvalues --    1.19591   1.20214   1.20671   1.21893   1.22639
 Alpha virt. eigenvalues --    1.23492   1.23582   1.24016   1.24221   1.24936
 Alpha virt. eigenvalues --    1.26132   1.26373   1.26876   1.26976   1.27486
 Alpha virt. eigenvalues --    1.27764   1.28787   1.28979   1.29852   1.30076
 Alpha virt. eigenvalues --    1.30547   1.31905   1.32105   1.34671   1.35104
 Alpha virt. eigenvalues --    1.35825   1.36253   1.36894   1.37638   1.37907
 Alpha virt. eigenvalues --    1.38622   1.39231   1.39603   1.40031   1.40511
 Alpha virt. eigenvalues --    1.40660   1.41282   1.41702   1.42216   1.42866
 Alpha virt. eigenvalues --    1.43333   1.43917   1.44452   1.44688   1.45298
 Alpha virt. eigenvalues --    1.45345   1.45606   1.46220   1.46392   1.46978
 Alpha virt. eigenvalues --    1.47444   1.47517   1.48284   1.48816   1.49095
 Alpha virt. eigenvalues --    1.49431   1.49984   1.50099   1.50576   1.50794
 Alpha virt. eigenvalues --    1.51238   1.51297   1.51959   1.52079   1.52484
 Alpha virt. eigenvalues --    1.52622   1.53034   1.53590   1.54061   1.54684
 Alpha virt. eigenvalues --    1.54905   1.55006   1.55366   1.55443   1.55750
 Alpha virt. eigenvalues --    1.56312   1.56846   1.57044   1.57551   1.57865
 Alpha virt. eigenvalues --    1.58543   1.59005   1.59482   1.59910   1.60126
 Alpha virt. eigenvalues --    1.61023   1.62092   1.62467   1.62821   1.63120
 Alpha virt. eigenvalues --    1.63610   1.64464   1.64681   1.64827   1.64977
 Alpha virt. eigenvalues --    1.65606   1.65965   1.66440   1.66898   1.67232
 Alpha virt. eigenvalues --    1.67726   1.68393   1.68789   1.69262   1.69524
 Alpha virt. eigenvalues --    1.70251   1.70549   1.70840   1.71141   1.71851
 Alpha virt. eigenvalues --    1.72256   1.72419   1.73030   1.73522   1.73674
 Alpha virt. eigenvalues --    1.74120   1.74275   1.74589   1.74654   1.75779
 Alpha virt. eigenvalues --    1.76072   1.76596   1.77240   1.77450   1.77639
 Alpha virt. eigenvalues --    1.78040   1.78361   1.79226   1.79528   1.80479
 Alpha virt. eigenvalues --    1.80595   1.80882   1.81334   1.81824   1.82551
 Alpha virt. eigenvalues --    1.84088   1.84557   1.85123   1.85731   1.86674
 Alpha virt. eigenvalues --    1.87660   1.87990   1.88277   1.88769   1.89375
 Alpha virt. eigenvalues --    1.89621   1.89967   1.90744   1.91295   1.92504
 Alpha virt. eigenvalues --    1.92763   1.93200   1.93282   1.94858   1.94883
 Alpha virt. eigenvalues --    1.95700   1.96290   1.96723   1.97337   1.98306
 Alpha virt. eigenvalues --    1.98823   1.99101   1.99573   1.99924   2.00151
 Alpha virt. eigenvalues --    2.00904   2.01471   2.01651   2.02781   2.03390
 Alpha virt. eigenvalues --    2.03694   2.04288   2.05052   2.05675   2.05964
 Alpha virt. eigenvalues --    2.06832   2.07000   2.07795   2.09120   2.09324
 Alpha virt. eigenvalues --    2.09830   2.10089   2.10290   2.10706   2.11522
 Alpha virt. eigenvalues --    2.11713   2.11995   2.13315   2.13566   2.14071
 Alpha virt. eigenvalues --    2.14724   2.15882   2.16721   2.17088   2.17852
 Alpha virt. eigenvalues --    2.18773   2.19228   2.19309   2.19867   2.20143
 Alpha virt. eigenvalues --    2.21087   2.21348   2.24368   2.24732   2.25665
 Alpha virt. eigenvalues --    2.26047   2.26468   2.26988   2.27414   2.28755
 Alpha virt. eigenvalues --    2.29124   2.30866   2.31314   2.31425   2.32238
 Alpha virt. eigenvalues --    2.33706   2.34235   2.34984   2.35583   2.36185
 Alpha virt. eigenvalues --    2.37355   2.38015   2.39308   2.39718   2.40656
 Alpha virt. eigenvalues --    2.41205   2.42269   2.42483   2.44005   2.44624
 Alpha virt. eigenvalues --    2.44740   2.45565   2.46035   2.46329   2.47295
 Alpha virt. eigenvalues --    2.47401   2.47934   2.48368   2.48605   2.49310
 Alpha virt. eigenvalues --    2.49677   2.50145   2.50509   2.51107   2.51800
 Alpha virt. eigenvalues --    2.52420   2.52927   2.53267   2.53763   2.54006
 Alpha virt. eigenvalues --    2.55048   2.55134   2.55578   2.55996   2.56635
 Alpha virt. eigenvalues --    2.56917   2.58332   2.58396   2.58629   2.59152
 Alpha virt. eigenvalues --    2.59625   2.60436   2.60723   2.60996   2.62077
 Alpha virt. eigenvalues --    2.62901   2.63129   2.63691   2.63826   2.64286
 Alpha virt. eigenvalues --    2.64671   2.65656   2.66153   2.66327   2.66687
 Alpha virt. eigenvalues --    2.67168   2.67487   2.67985   2.68702   2.69930
 Alpha virt. eigenvalues --    2.70938   2.70982   2.71358   2.71585   2.72107
 Alpha virt. eigenvalues --    2.73035   2.73231   2.73568   2.74181   2.75059
 Alpha virt. eigenvalues --    2.75646   2.76174   2.77132   2.77573   2.78797
 Alpha virt. eigenvalues --    2.79058   2.79950   2.80779   2.80977   2.81270
 Alpha virt. eigenvalues --    2.82278   2.83515   2.84357   2.84843   2.85720
 Alpha virt. eigenvalues --    2.86695   2.87911   2.88253   2.89144   2.89439
 Alpha virt. eigenvalues --    2.90093   2.90518   2.90714   2.91110   2.91523
 Alpha virt. eigenvalues --    2.92777   2.93863   2.94117   2.94338   2.94748
 Alpha virt. eigenvalues --    2.94901   2.95810   2.96197   2.97012   2.97566
 Alpha virt. eigenvalues --    2.98029   2.98386   2.99497   3.00461   3.01231
 Alpha virt. eigenvalues --    3.01639   3.02246   3.03586   3.04673   3.04789
 Alpha virt. eigenvalues --    3.06210   3.07478   3.08347   3.09638   3.10686
 Alpha virt. eigenvalues --    3.11422   3.11613   3.12541   3.13789   3.15010
 Alpha virt. eigenvalues --    3.15278   3.16741   3.17374   3.17699   3.18073
 Alpha virt. eigenvalues --    3.19911   3.20475   3.20993   3.21875   3.22877
 Alpha virt. eigenvalues --    3.23106   3.24218   3.26806   3.28093   3.28546
 Alpha virt. eigenvalues --    3.30624   3.31191   3.31535   3.34366   3.34557
 Alpha virt. eigenvalues --    3.34947   3.35282   3.35839   3.36553   3.37512
 Alpha virt. eigenvalues --    3.38358   3.38851   3.49172   3.49421   3.49964
 Alpha virt. eigenvalues --    3.52392   3.53984   3.54114   3.54556   3.55418
 Alpha virt. eigenvalues --    3.57727   3.59154   3.62201   3.63359   3.65014
 Alpha virt. eigenvalues --    3.65869   3.67489   3.69442   3.70171   3.73912
 Alpha virt. eigenvalues --    3.75816   3.76244   3.77366   3.77738   3.78375
 Alpha virt. eigenvalues --    3.78805   3.79352   3.81137   3.81966   3.82017
 Alpha virt. eigenvalues --    3.83705   3.84383   3.84920   3.85383   3.86339
 Alpha virt. eigenvalues --    3.86719   3.86828   3.92812   3.92989   3.93238
 Alpha virt. eigenvalues --    3.95094   4.01098   4.03569   4.07255   4.09193
 Alpha virt. eigenvalues --    4.12665   4.13798   4.16341   4.16860   4.17692
 Alpha virt. eigenvalues --    4.20633   4.24170   4.25390   4.27858   4.28356
 Alpha virt. eigenvalues --    4.29632   4.36357   4.38425   4.44638   4.47386
 Alpha virt. eigenvalues --    4.51584   4.53543   4.62239   4.76227   4.78285
 Alpha virt. eigenvalues --    4.83369   4.86877   4.87401   4.90485   4.93950
 Alpha virt. eigenvalues --    5.02988   5.06879   5.09381   5.28989   5.32776
 Alpha virt. eigenvalues --    5.55878   5.64300   5.80735   5.92178   7.77537
 Alpha virt. eigenvalues --    7.78581  17.17409  17.19193  17.43450  17.45285
 Alpha virt. eigenvalues --   17.49207  17.51493  23.40863  23.46637  23.54024
 Alpha virt. eigenvalues --   23.62631  23.71253  23.75843  23.76339  23.77059
 Alpha virt. eigenvalues --   23.78141  23.80847  23.81668  23.82781  23.84396
 Alpha virt. eigenvalues --   23.85291  23.86137  23.87764  23.89163  23.91021
 Alpha virt. eigenvalues --   23.93334  23.93761  23.94120  23.95877  23.98516
 Alpha virt. eigenvalues --   24.00129  24.03400  24.05684  24.08599  24.08873
 Alpha virt. eigenvalues --   24.12105  24.13718  24.14262  24.15349  24.41914
 Alpha virt. eigenvalues --   24.43022  35.57096  35.81410  35.82701  49.85146
 Alpha virt. eigenvalues --   49.87993  50.01365  50.01607 188.89122 188.90206
          Condensed to atoms (all electrons):
 Mulliken charges:
               1
     1  O   -0.324056
     2  C    0.442334
     3  C   -0.339666
     4  C    0.026843
     5  C    0.060508
     6  C   -0.004146
     7  N   -0.244928
     8  C   -0.273790
     9  S    0.364795
    10  C   -0.031562
    11  C   -0.036847
    12  C   -0.241715
    13  C   -0.187663
    14  C   -0.047983
    15  C    0.003116
    16  C   -0.289008
    17  C    0.069429
    18  C   -0.191651
    19  C   -0.015291
    20  N   -0.236844
    21  C    0.459031
    22  O   -0.301270
    23  O   -0.320236
    24  S    0.338572
    25  C    0.171433
    26  C   -0.173979
    27  C   -0.025891
    28  C   -0.053205
    29  C    0.394683
    30  N   -0.536901
    31  C   -0.013712
    32  C   -0.213869
    33  C   -0.237387
    34  C   -0.242152
    35  C   -0.212077
    36  C   -0.018536
    37  C   -0.202901
    38  C   -0.273895
    39  C   -0.247666
    40  C   -0.209508
    41  C   -0.085283
    42  C    0.265468
    43  O   -0.348323
    44  H    0.128122
    45  H    0.112648
    46  H    0.113413
    47  H    0.120014
    48  H    0.137276
    49  H    0.134232
    50  H    0.255260
    51  H    0.134523
    52  H    0.097268
    53  H    0.124032
    54  H    0.122240
    55  H    0.120050
    56  H    0.123905
    57  H    0.099116
    58  H    0.103896
    59  H    0.145924
    60  H    0.103172
    61  H    0.136157
    62  H    0.095684
    63  H    0.127629
    64  H    0.126080
    65  H    0.119845
    66  H    0.126367
    67  H    0.117971
    68  H    0.115802
    69  H    0.110356
    70  H    0.111954
    71  H    0.106812
    72  H    0.115980
 Sum of Mulliken charges =  -0.00000
 Mulliken charges with hydrogens summed into heavy atoms:
               1
     1  O   -0.324056
     2  C    0.442334
     3  C   -0.339666
     4  C    0.154964
     5  C    0.060508
     6  C   -0.004146
     7  N   -0.244928
     8  C   -0.273790
     9  S    0.364795
    10  C    0.081086
    11  C    0.076566
    12  C   -0.241715
    13  C   -0.187663
    14  C    0.072031
    15  C    0.140392
    16  C   -0.289008
    17  C    0.203661
    18  C   -0.191651
    19  C   -0.015291
    20  N   -0.236844
    21  C    0.459031
    22  O   -0.046010
    23  O   -0.320236
    24  S    0.338572
    25  C    0.305957
    26  C   -0.173979
    27  C    0.071377
    28  C   -0.053205
    29  C    0.394683
    30  N   -0.536901
    31  C    0.232560
    32  C    0.030086
    33  C   -0.237387
    34  C    0.106784
    35  C    0.122936
    36  C    0.235174
    37  C    0.043311
    38  C   -0.273895
    39  C    0.096463
    40  C    0.125238
    41  C   -0.085283
    42  C    0.265468
    43  O   -0.348323
 Electronic spatial extent (au):  <R**2>=          61064.7088
 Charge=              0.0000 electrons
 Dipole moment (field-independent basis, Debye):
    X=            -17.1733    Y=              1.3045    Z=             -0.7069  Tot=             17.2372
 Quadrupole moment (field-independent basis, Debye-Ang):
   XX=           -281.9896   YY=           -280.4905   ZZ=           -268.5267
   XY=             -7.3315   XZ=              0.7914   YZ=              0.4175
 Traceless Quadrupole moment (field-independent basis, Debye-Ang):
   XX=             -4.9873   YY=             -3.4882   ZZ=              8.4755
   XY=             -7.3315   XZ=              0.7914   YZ=              0.4175
 Octapole moment (field-independent basis, Debye-Ang**2):
  XXX=          -2474.8099  YYY=            -21.8662  ZZZ=              1.3222  XYY=           -142.1032
  XXY=            214.6218  XXZ=            -42.0208  XZZ=             -3.0084  YZZ=             -8.8243
  YYZ=             -5.8097  XYZ=              7.1296
 Hexadecapole moment (field-independent basis, Debye-Ang**3):
 XXXX=         -90007.4771 YYYY=          -5912.0344 ZZZZ=           -730.2748 XXXY=           2112.4184
 XXXZ=            159.2217 YYYX=           -526.8494 YYYZ=              1.6399 ZZZX=             37.1264
 ZZZY=             -5.1325 XXYY=         -14609.9504 XXZZ=         -13012.4579 YYZZ=          -1077.3859
 XXYZ=            -94.4513 YYXZ=            -36.6258 ZZXY=            -16.0484
 N-N= 4.783727235719D+03 E-N=-1.559977971944D+04  KE= 2.566936184021D+03
 1\1\GINC-CN113\FOpt\RB3LYP\6-311G(d,p)\C34H29N3O4S2\R2532\04-Aug-2021\
 0\\#N B3LYP/6-311G(d,p) OPT\\C61H46O6N4S3\\0,1\O,2.1608532206,-1.88360
 90075,0.2042861196\C,3.3448622135,-1.6687586714,0.1567476064\C,4.41292
 05986,-2.5046463447,0.7254779409\C,3.9387511791,-3.6810400723,1.403090
 5112\C,4.5986475962,-4.6852972613,2.0594921832\C,6.0188105843,-4.68311
 16137,2.2065028978\N,7.1688785138,-4.689538334,2.3351288967\C,3.887340
 5618,-5.8174306913,2.6491136891\S,4.7047898588,-6.9176402021,3.7361595
 307\C,2.5659010265,-6.1912976604,2.4902651184\C,2.2126226864,-7.336237
 2679,3.2264298719\C,3.2534815256,-7.8724287316,3.9611823824\C,3.257106
 0486,-9.0366810966,4.8052685276\C,4.3459287434,-9.6683353035,5.3972403
 324\C,4.005949771,-10.7899845029,6.1610982895\C,2.6421634196,-11.05945
 91428,6.1819462573\C,1.8874642953,-12.0836299447,6.8162802526\C,2.3033
 496416,-13.113592975,7.6125190683\C,3.6562864997,-13.3491632628,7.9634
 5648\N,4.7424840714,-13.5949164884,8.2856336844\C,1.2571569911,-14.050
 4477922,8.1451915208\O,1.6946758055,-15.0591625899,8.9299655852\O,0.08
 66449908,-13.9278957438,7.8988400113\S,1.7807249239,-9.8587862786,5.22
 31879088\C,5.7213451732,-2.0957799814,0.5568618538\C,6.0613980753,-0.9
 125757506,-0.1295797123\C,7.3921060606,-0.4817533851,-0.3088226877\C,7
 .7056745217,0.6501620067,-1.0156460205\C,6.6366268965,1.4204703022,-1.
 6063543738\N,6.9477125262,2.4753018823,-2.4221018192\C,5.9101708716,3.
 2759100081,-3.0623711481\C,4.6805506968,3.3656093699,-2.1854390774\C,4
 .1075722482,1.9843111237,-1.812016878\C,3.0670285091,2.2466977878,-0.6
 952062978\C,3.3980001516,1.3508296752,-3.0304337062\C,8.3000132943,2.7
 676213277,-2.9010750462\C,9.2873654028,1.6501895531,-2.6169974031\C,9.
 1512431735,1.1231918109,-1.1765823666\C,10.1777247291,-0.0043201949,-0
 .9763208399\C,9.4423309963,2.2445978058,-0.1502754576\C,5.2693769986,1
 .0882576927,-1.3399178336\C,5.0354435758,-0.103070302,-0.6570338466\O,
 3.7409637187,-0.5120093567,-0.5091993424\H,2.8582224562,-3.761037124,1
 .3780104517\H,1.8747320093,-5.6679316495,1.8445131355\H,1.2232774687,-
 7.7747854135,3.2026310453\H,5.3631757781,-9.3251794391,5.2632743881\H,
 4.7338553813,-11.3963189694,6.680833612\H,0.8110982905,-12.0720408233,
 6.6638843616\H,2.6554233287,-15.0304299828,9.0396113163\H,6.5321132576
 ,-2.6888098948,0.9598604126\H,8.1767159722,-1.0846053625,0.1297076226\
 H,5.6689571282,2.8557472559,-4.0494028383\H,6.3220523819,4.2746429466,
 -3.2354891925\H,3.9095511213,3.9519140717,-2.6932884717\H,4.9446309416
 ,3.904957037,-1.2693479179\H,2.3896152974,3.0417129633,-1.0222952579\H
 ,3.5573894441,2.5832240825,0.222645296\H,2.4705630762,1.3682021974,-0.
 4658556806\H,2.5840618785,1.9991593216,-3.3708539082\H,2.9698492651,0.
 3835327688,-2.7658772173\H,4.0833943813,1.1969525206,-3.8678561633\H,8
 .6405473,3.7095340368,-2.4514140501\H,8.2409430356,2.94191218,-3.98141
 037\H,10.3012848635,2.0205807389,-2.7961060515\H,9.1186001277,0.820349
 1517,-3.3110826701\H,9.9855376047,-0.8469280229,-1.6457460894\H,10.186
 5897523,-0.377240012,0.0502375044\H,11.1816020311,0.3740230996,-1.1884
 749002\H,8.721784782,3.0625648523,-0.2154529941\H,10.4443766868,2.6580
 976486,-0.304831031\H,9.3926925716,1.8467794244,0.8659929947\\Version=
 ES64L-G16RevB.01\State=1-A\HF=-2575.0849957\RMSD=7.376e-09\RMSF=2.004e
 -06\Dipole=2.1588756,5.3162436,-3.614916\Quadrupole=-0.0771384,-2.8976
 618,2.9748001,3.7276847,-2.6464382,5.5425225\PG=C01 [X(C34H29N3O4S2)]\
 \@


 We're simply so accustomed to the marvels of everyday thought
 that we never wonder about it.
 -- Marvin Minsky in "Why people think computers are smart"
 Job cpu time:       0 days 14 hours 56 minutes 41.6 seconds.
 Elapsed time:       0 days 14 hours 56 minutes 56.3 seconds.
 File lengths (MBytes):  RWF=    572 Int=      0 D2E=      0 Chk=     70 Scr=      1
 Normal termination of Gaussian 16 at Wed Aug  4 02:25:06 2021.
