 Entering Gaussian System, Link 0=/usr/local/apps//g09/g09
 Input=GO.com
 Output=GO.out
 Initial command:
 /usr/local/apps//g09/l1.exe "/tmp/bnp.243457.sequoia/Gau-29640.inp" -scrdir="/tmp/bnp.243457.sequoia/"
 Entering Link 1 = /usr/local/apps//g09/l1.exe PID=     29642.
  
 Copyright (c) 1988,1990,1992,1993,1995,1998,2003,2009,2013,
            Gaussian, Inc.  All Rights Reserved.
  
 This is part of the Gaussian(R) 09 program.  It is based on
 the Gaussian(R) 03 system (copyright 2003, Gaussian, Inc.),
 the Gaussian(R) 98 system (copyright 1998, Gaussian, Inc.),
 the Gaussian(R) 94 system (copyright 1995, Gaussian, Inc.),
 the Gaussian 92(TM) system (copyright 1992, Gaussian, Inc.),
 the Gaussian 90(TM) system (copyright 1990, Gaussian, Inc.),
 the Gaussian 88(TM) system (copyright 1988, Gaussian, Inc.),
 the Gaussian 86(TM) system (copyright 1986, Carnegie Mellon
 University), and the Gaussian 82(TM) system (copyright 1983,
 Carnegie Mellon University). Gaussian is a federally registered
 trademark of Gaussian, Inc.
  
 This software contains proprietary and confidential information,
 including trade secrets, belonging to Gaussian, Inc.
  
 This software is provided under written license and may be
 used, copied, transmitted, or stored only in accord with that
 written license.
  
 The following legend is applicable only to US Government
 contracts under FAR:
  
                    RESTRICTED RIGHTS LEGEND
  
 Use, reproduction and disclosure by the US Government is
 subject to restrictions as set forth in subparagraphs (a)
 and (c) of the Commercial Computer Software - Restricted
 Rights clause in FAR 52.227-19.
  
 Gaussian, Inc.
 340 Quinnipiac St., Bldg. 40, Wallingford CT 06492
  
  
 ---------------------------------------------------------------
 Warning -- This program may not be used in any manner that
 competes with the business of Gaussian, Inc. or will provide
 assistance to any competitor of Gaussian, Inc.  The licensee
 of this program is prohibited from giving any competitor of
 Gaussian, Inc. access to this program.  By using this program,
 the user acknowledges that Gaussian, Inc. is engaged in the
 business of creating and licensing software in the field of
 computational chemistry and represents and warrants to the
 licensee that it is not a competitor of Gaussian, Inc. and that
 it will not use this program in any manner prohibited above.
 ---------------------------------------------------------------
  

 Cite this work as:
 Gaussian 09, Revision D.01,
 M. J. Frisch, G. W. Trucks, H. B. Schlegel, G. E. Scuseria, 
 M. A. Robb, J. R. Cheeseman, G. Scalmani, V. Barone, B. Mennucci, 
 G. A. Petersson, H. Nakatsuji, M. Caricato, X. Li, H. P. Hratchian, 
 A. F. Izmaylov, J. Bloino, G. Zheng, J. L. Sonnenberg, M. Hada, 
 M. Ehara, K. Toyota, R. Fukuda, J. Hasegawa, M. Ishida, T. Nakajima, 
 Y. Honda, O. Kitao, H. Nakai, T. Vreven, J. A. Montgomery, Jr., 
 J. E. Peralta, F. Ogliaro, M. Bearpark, J. J. Heyd, E. Brothers, 
 K. N. Kudin, V. N. Staroverov, T. Keith, R. Kobayashi, J. Normand, 
 K. Raghavachari, A. Rendell, J. C. Burant, S. S. Iyengar, J. Tomasi, 
 M. Cossi, N. Rega, J. M. Millam, M. Klene, J. E. Knox, J. B. Cross, 
 V. Bakken, C. Adamo, J. Jaramillo, R. Gomperts, R. E. Stratmann, 
 O. Yazyev, A. J. Austin, R. Cammi, C. Pomelli, J. W. Ochterski, 
 R. L. Martin, K. Morokuma, V. G. Zakrzewski, G. A. Voth, 
 P. Salvador, J. J. Dannenberg, S. Dapprich, A. D. Daniels, 
 O. Farkas, J. B. Foresman, J. V. Ortiz, J. Cioslowski, 
 and D. J. Fox, Gaussian, Inc., Wallingford CT, 2013.
 
 ******************************************
 Gaussian 09:  ES64L-G09RevD.01 24-Apr-2013
                10-Jul-2019 
 ******************************************
 %Mem=15GB
 ------------------------------------------
 #N B3LYP/6-311G(d,p) OPT Geom=Connectivity
 ------------------------------------------
 1/14=-1,18=20,19=15,26=3,38=1,57=2/1,3;
 2/9=110,12=2,17=6,18=5,40=1/2;
 3/5=4,6=6,7=101,11=2,16=1,25=1,30=1,71=1,74=-5/1,2,3;
 4//1;
 5/5=2,38=5/2;
 6/7=2,8=2,9=2,10=2,28=1/1;
 7//1,2,3,16;
 1/14=-1,18=20,19=15,26=3/3(2);
 2/9=110/2;
 99//99;
 2/9=110/2;
 3/5=4,6=6,7=101,11=2,16=1,25=1,30=1,71=1,74=-5/1,2,3;
 4/5=5,16=3,69=1/1;
 5/5=2,38=5/2;
 7//1,2,3,16;
 1/14=-1,18=20,19=15,26=3/3(-5);
 2/9=110/2;
 6/7=2,8=2,9=2,10=2,19=2,28=1/1;
 99/9=1/99;
 -----------
 C88H68O8N6S
 -----------
 Symbolic Z-matrix:
 Charge =  0 Multiplicity = 1
 N
 C                    1    B1
 C                    2    B2       1    A1
 C                    3    B3       2    A2       1    D1       0
 C                    4    B4       3    A3       2    D2       0
 C                    5    B5       4    A4       3    D3       0
 C                    6    B6       5    A5       4    D4       0
 C                    7    B7       6    A6       5    D5       0
 C                    8    B8       7    A7       6    D6       0
 C                    9    B9       8    A8       7    D7       0
 C                    10   B10      9    A9       8    D8       0
 C                    11   B11      10   A10      9    D9       0
 C                    12   B12      11   A11      10   D10      0
 C                    13   B13      12   A12      11   D11      0
 C                    14   B14      13   A13      12   D12      0
 C                    15   B15      14   A14      13   D13      0
 C                    16   B16      15   A15      14   D14      0
 C                    17   B17      16   A16      15   D15      0
 C                    18   B18      17   A17      16   D16      0
 H                    19   B19      18   A18      17   D17      0
 H                    20   B20      19   A19      18   D18      0
 C                    21   B21      20   A20      19   D19      0
 H                    22   B22      21   A21      20   D20      0
 H                    23   B23      22   A22      21   D21      0
 H                    24   B24      23   A23      22   D22      0
 H                    25   B25      24   A24      23   D23      0
 O                    26   B26      25   A25      24   D24      0
 H                    27   B27      26   A26      25   D25      0
 H                    28   B28      27   A27      26   D26      0
 H                    29   B29      28   A28      27   D27      0
 H                    30   B30      29   A29      28   D28      0
 O                    31   B31      30   A30      29   D29      0
 H                    32   B32      31   A31      30   D30      0
 H                    33   B33      32   A32      31   D31      0
 C                    34   B34      33   A33      32   D32      0
 C                    35   B35      34   A34      33   D33      0
 C                    36   B36      35   A35      34   D34      0
 S                    37   B37      36   A36      35   D35      0
 C                    38   B38      37   A37      36   D36      0
 C                    39   B39      38   A38      37   D37      0
 C                    40   B40      39   A39      38   D38      0
 C                    41   B41      40   A40      39   D39      0
 C                    42   B42      41   A41      40   D40      0
 C                    43   B43      42   A42      41   D41      0
 C                    44   B44      43   A43      42   D42      0
 C                    45   B45      44   A44      43   D43      0
 C                    46   B46      45   A45      44   D44      0
 O                    47   B47      46   A46      45   D45      0
 O                    48   B48      47   A47      46   D46      0
 N                    49   B49      48   A48      47   D47      0
 N                    50   B50      49   A49      48   D48      0
 H                    51   B51      50   A50      49   D49      0
 H                    52   B52      51   A51      50   D50      0
 H                    53   B53      52   A52      51   D51      0
 H                    54   B54      53   A53      52   D52      0
 H                    55   B55      54   A54      53   D53      0
 C                    56   B56      55   A55      54   D54      0
 H                    57   B57      56   A56      55   D55      0
 N                    58   B58      57   A57      56   D56      0
 C                    59   B59      58   A58      57   D57      0
 C                    60   B60      59   A59      58   D58      0
 C                    61   B61      60   A60      59   D59      0
 C                    62   B62      61   A61      60   D60      0
 C                    63   B63      62   A62      61   D61      0
 C                    64   B64      63   A63      62   D62      0
 C                    65   B65      64   A64      63   D63      0
 C                    66   B66      65   A65      64   D64      0
 C                    67   B67      66   A66      65   D65      0
 C                    68   B68      67   A67      66   D66      0
 C                    69   B69      68   A68      67   D67      0
 C                    70   B70      69   A69      68   D68      0
 C                    71   B71      70   A70      69   D69      0
 C                    72   B72      71   A71      70   D70      0
 H                    73   B73      72   A72      71   D71      0
 H                    74   B74      73   A73      72   D72      0
 H                    75   B75      74   A74      73   D73      0
 H                    76   B76      75   A75      74   D74      0
 H                    77   B77      76   A76      75   D75      0
 H                    78   B78      77   A77      76   D76      0
 C                    79   B79      78   A78      77   D77      0
 C                    80   B80      79   A79      78   D78      0
 H                    81   B81      80   A80      79   D79      0
 H                    82   B82      81   A81      80   D80      0
 H                    83   B83      82   A82      81   D81      0
 H                    84   B84      83   A83      82   D82      0
 H                    85   B85      84   A84      83   D83      0
 H                    86   B86      85   A85      84   D84      0
 N                    87   B87      86   A86      85   D85      0
 C                    88   B88      87   A87      86   D86      0
 C                    89   B89      88   A88      87   D87      0
 C                    90   B90      89   A89      88   D88      0
 C                    91   B91      90   A90      89   D89      0
 C                    92   B92      91   A91      90   D90      0
 C                    93   B93      92   A92      91   D91      0
 H                    94   B94      93   A93      92   D92      0
 H                    95   B95      94   A94      93   D93      0
 H                    96   B96      95   A95      94   D94      0
 O                    97   B97      96   A96      95   D95      0
 H                    98   B98      97   A97      96   D96      0
 C                    99   B99      98   A98      97   D97      0
 C                    100  B100     99   A99      98   D98      0
 C                    101  B101     100  A100     99   D99      0
 C                    102  B102     101  A101     100  D100     0
 C                    103  B103     102  A102     101  D101     0
 C                    104  B104     103  A103     102  D102     0
 H                    105  B105     104  A104     103  D103     0
 H                    106  B106     105  A105     104  D104     0
 O                    107  B107     106  A106     105  D105     0
 H                    108  B108     107  A107     106  D106     0
 C                    109  B109     108  A108     107  D107     0
 H                    110  B110     109  A109     108  D108     0
 H                    111  B111     110  A110     109  D109     0
 H                    112  B112     111  A111     110  D110     0
 N                    113  B113     112  A112     111  D111     0
 C                    114  B114     113  A113     112  D112     0
 C                    115  B115     114  A114     113  D113     0
 C                    116  B116     115  A115     114  D114     0
 C                    117  B117     116  A116     115  D115     0
 C                    118  B118     117  A117     116  D116     0
 C                    119  B119     118  A118     117  D117     0
 H                    120  B120     119  A119     118  D118     0
 H                    121  B121     120  A120     119  D119     0
 H                    122  B122     121  A121     120  D120     0
 O                    123  B123     122  A122     121  D121     0
 H                    124  B124     123  A123     122  D122     0
 C                    125  B125     124  A124     123  D123     0
 C                    126  B126     125  A125     124  D124     0
 C                    127  B127     126  A126     125  D125     0
 C                    128  B128     127  A127     126  D126     0
 C                    129  B129     128  A128     127  D127     0
 C                    130  B130     129  A129     128  D128     0
 H                    131  B131     130  A130     129  D129     0
 H                    132  B132     131  A131     130  D130     0
 H                    133  B133     132  A132     131  D131     0
 O                    134  B134     133  A133     132  D132     0
 H                    135  B135     134  A134     133  D133     0
 C                    136  B136     135  A135     134  D134     0
 C                    137  B137     136  A136     135  D135     0
 H                    138  B138     137  A137     136  D136     0
 H                    139  B139     138  A138     137  D137     0
 H                    140  B140     139  A139     138  D138     0
 H                    141  B141     140  A140     139  D139     0
 H                    142  B142     141  A141     140  D140     0
 H                    143  B143     142  A142     141  D141     0
 H                    144  B144     143  A143     142  D142     0
 C                    145  B145     144  A144     143  D143     0
 H                    146  B146     145  A145     144  D144     0
 H                    147  B147     146  A146     145  D145     0
 H                    148  B148     147  A147     146  D146     0
 H                    149  B149     148  A148     147  D147     0
 H                    150  B150     149  A149     148  D148     0
       Variables:
  B1                    1.39194                  
  B2                    1.34928                  
  B3                    1.3399                   
  B4                    1.33953                  
  B5                    1.33899                  
  B6                    1.34128                  
  B7                    2.90628                  
  B8                    1.34799                  
  B9                    1.34286                  
  B10                   1.34675                  
  B11                   1.34588                  
  B12                   1.34141                  
  B13                   2.91135                  
  B14                   1.34703                  
  B15                   1.3413                   
  B16                   1.34608                  
  B17                   1.34758                  
  B18                   1.34278                  
  B19                   3.44646                  
  B20                   2.41972                  
  B21                   2.64657                  
  B22                   2.69773                  
  B23                   2.42525                  
  B24                   2.72635                  
  B25                   2.34972                  
  B26                   2.71401                  
  B27                   2.56119                  
  B28                   2.38641                  
  B29                   4.11298                  
  B30                   2.38921                  
  B31                   2.54887                  
  B32                   2.71894                  
  B33                   2.35695                  
  B34                   9.21965                  
  B35                   1.34304                  
  B36                   1.54723                  
  B37                   1.80527                  
  B38                   2.90446                  
  B39                   1.34058                  
  B40                   1.34243                  
  B41                   1.35156                  
  B42                   1.34776                  
  B43                   1.3429                   
  B44                   3.62551                  
  B45                   1.35001                  
  B46                   1.36712                  
  B47                   1.21149                  
  B48                   2.1567                   
  B49                  10.76768                  
  B50                   2.49528                  
  B51                   4.53462                  
  B52                   2.38991                  
  B53                   4.26433                  
  B54                   2.37968                  
  B55                   5.41387                  
  B56                   3.31047                  
  B57                   3.57398                  
  B58                   4.24687                  
  B59                   9.10369                  
  B60                   1.36406                  
  B61                   2.45574                  
  B62                   1.34805                  
  B63                   2.79428                  
  B64                   1.34662                  
  B65                   1.348                    
  B66                   1.3428                   
  B67                   1.34837                  
  B68                   1.3456                   
  B69                   4.34468                  
  B70                   1.34669                  
  B71                   1.35005                  
  B72                   1.34598                  
  B73                   6.23112                  
  B74                   2.33218                  
  B75                   4.23537                  
  B76                   4.11724                  
  B77                   4.22751                  
  B78                   2.32093                  
  B79                  12.92086                  
  B80                  11.00234                  
  B81                  12.09351                  
  B82                   1.8113                   
  B83                   1.84584                  
  B84                  10.36851                  
  B85                   1.85059                  
  B86                   1.8071                   
  B87                  14.59298                  
  B88                   2.41027                  
  B89                   1.34742                  
  B90                   1.34605                  
  B91                   1.34051                  
  B92                   1.3446                   
  B93                   1.34669                  
  B94                   1.1054                   
  B95                   4.85999                  
  B96                   4.23401                  
  B97                   4.48411                  
  B98                   2.58794                  
  B99                   5.05032                  
  B100                  1.3463                   
  B101                  1.34729                  
  B102                  1.34392                  
  B103                  1.34743                  
  B104                  1.34644                  
  B105                  3.76965                  
  B106                  4.23499                  
  B107                  4.47992                  
  B108                  2.60863                  
  B109                  9.92927                  
  B110                  1.11569                  
  B111                  1.81723                  
  B112                  1.83354                  
  B113                 13.29395                  
  B114                  2.40106                  
  B115                  1.34859                  
  B116                  1.3473                   
  B117                  1.34303                  
  B118                  1.3474                   
  B119                  1.34578                  
  B120                  1.10496                  
  B121                  4.85002                  
  B122                  4.23323                  
  B123                  4.44548                  
  B124                  2.71117                  
  B125                  5.69165                  
  B126                  1.34823                  
  B127                  1.34786                  
  B128                  1.34268                  
  B129                  1.3454                   
  B130                  1.34514                  
  B131                  1.10411                  
  B132                  4.85426                  
  B133                  4.23668                  
  B134                  4.47283                  
  B135                  2.60876                  
  B136                 10.37456                  
  B137                 11.47816                  
  B138                 12.3096                   
  B139                  1.79904                  
  B140                  1.84864                  
  B141                 11.48717                  
  B142                  1.83061                  
  B143                  1.81828                  
  B144                 14.16938                  
  B145                  3.02894                  
  B146                  1.11575                  
  B147                  1.81694                  
  B148                  1.83397                  
  B149                  7.5626                   
  B150                  2.44352                  
  A1                  122.15223                  
  A2                  121.73843                  
  A3                  120.26269                  
  A4                  119.18136                  
  A5                  120.0445                   
  A6                  162.79291                  
  A7                   81.90929                  
  A8                  122.3788                   
  A9                  122.18695                  
  A10                 115.31467                  
  A11                 122.64477                  
  A12                 165.29713                  
  A13                 139.33247                  
  A14                 121.97948                  
  A15                 122.43492                  
  A16                 115.54162                  
  A17                 122.17025                  
  A18                 113.73778                  
  A19                 169.56113                  
  A20                 125.0869                   
  A21                 103.8101                   
  A22                 124.10405                  
  A23                 105.85065                  
  A24                 111.99069                  
  A25                 125.81716                  
  A26                 106.409                    
  A27                 127.95819                  
  A28                 162.67615                  
  A29                 103.32899                  
  A30                 127.9384                   
  A31                 106.64067                  
  A32                 125.68101                  
  A33                 125.51057                  
  A34                 142.24171                  
  A35                 115.36844                  
  A36                 108.18201                  
  A37                  27.4553                   
  A38                 101.63404                  
  A39                 120.77213                  
  A40                 122.43409                  
  A41                 115.70651                  
  A42                 122.21504                  
  A43                  19.76154                  
  A44                 115.10996                  
  A45                 119.98039                  
  A46                 123.12295                  
  A47                  34.919                    
  A48                  61.01828                  
  A49                  42.24219                  
  A50                  83.447                    
  A51                 107.21343                  
  A52                  89.06126                  
  A53                  89.26413                  
  A54                  37.40859                  
  A55                  59.94391                  
  A56                  75.41923                  
  A57                  13.93633                  
  A58                 114.0194                   
  A59                  41.55353                  
  A60                  25.64155                  
  A61                  98.69564                  
  A62                  89.28811                  
  A63                  88.60012                  
  A64                 114.89844                  
  A65                 121.70694                  
  A66                 122.77438                  
  A67                 114.87292                  
  A68                 132.4461                   
  A69                 143.94514                  
  A70                 113.28318                  
  A71                 123.70104                  
  A72                 134.55042                  
  A73                 117.55376                  
  A74                  90.41778                  
  A75                 105.05085                  
  A76                 110.74152                  
  A77                  90.29645                  
  A78                 127.16066                  
  A79                  40.32595                  
  A80                   1.1855                   
  A81                  43.74883                  
  A82                  59.34967                  
  A83                  91.72437                  
  A84                 106.5987                   
  A85                  59.24333                  
  A86                  19.47612                  
  A87                 141.7018                   
  A88                  28.69317                  
  A89                 116.13806                  
  A90                 121.8484                   
  A91                 121.89417                  
  A92                 116.29342                  
  A93                 119.59078                  
  A94                   2.09624                  
  A95                  29.42243                  
  A96                  61.48416                  
  A97                  81.9714                   
  A98                 105.29284                  
  A99                  73.09439                  
  A100                117.13422                  
  A101                120.90243                  
  A102                122.08583                  
  A103                116.60953                  
  A104                 61.52263                  
  A105                 29.80099                  
  A106                 61.90269                  
  A107                 82.03874                  
  A108                 93.05695                  
  A109                140.41066                  
  A110                 35.48883                  
  A111                 59.64831                  
  A112                 67.08602                  
  A113                 87.36824                  
  A114                 29.56252                  
  A115                115.44682                  
  A116                122.21632                  
  A117                122.34366                  
  A118                115.34781                  
  A119                118.7558                   
  A120                  0.71334                  
  A121                 29.48296                  
  A122                 62.66482                  
  A123                 81.39952                  
  A124                 88.10086                  
  A125                 78.59926                  
  A126                115.69433                  
  A127                121.89319                  
  A128                122.15566                  
  A129                115.8402                   
  A130                118.88959                  
  A131                  1.87548                  
  A132                 29.55264                  
  A133                 61.6615                   
  A134                 81.89734                  
  A135                 88.32641                  
  A136                 17.35262                  
  A137                  3.57703                  
  A138                 55.76934                  
  A139                 59.65316                  
  A140                 66.97455                  
  A141                104.35221                  
  A142                 59.68359                  
  A143                 60.51956                  
  A144                 63.87614                  
  A145                134.78934                  
  A146                 35.46485                  
  A147                 59.58792                  
  A148                 81.72384                  
  A149                 71.53192                  
  D1                 -179.65093                  
  D2                   -1.26846                  
  D3                    1.61324                  
  D4                   -1.2322                   
  D5                   75.29858                  
  D6                   33.40705                  
  D7                  141.68391                  
  D8                   -0.56087                  
  D9                    0.83995                  
  D10                  -0.60596                  
  D11                  75.99143                  
  D12                 156.78234                  
  D13                -108.47294                  
  D14                  -0.22736                  
  D15                  -0.19676                  
  D16                   0.15136                  
  D17                 -48.54104                  
  D18                 131.27132                  
  D19                  -1.23014                  
  D20                  30.42093                  
  D21                 -30.23785                  
  D22                  82.17629                  
  D23                 115.64291                  
  D24                  66.53547                  
  D25                   0.64193                  
  D26                  -1.03196                  
  D27                 -29.93367                  
  D28                 173.91686                  
  D29                 -33.48019                  
  D30                  -1.70048                  
  D31                   0.84862                  
  D32                 -26.55303                  
  D33                  41.24435                  
  D34                 -20.85543                  
  D35                  14.96125                  
  D36                -139.89347                  
  D37                 125.1181                   
  D38                -176.08019                  
  D39                  -1.12223                  
  D40                  -0.59952                  
  D41                   0.70546                  
  D42                   0.83572                  
  D43                   0.48136                  
  D44                 178.22523                  
  D45                  -0.17134                  
  D46                -179.77223                  
  D47                  26.65879                  
  D48                -155.18898                  
  D49                  47.9176                   
  D50                -119.82252                  
  D51                 -44.92116                  
  D52                   0.10809                  
  D53                   1.04241                  
  D54                  -0.88838                  
  D55                 177.83598                  
  D56                 179.18531                  
  D57                  35.78069                  
  D58                 176.97051                  
  D59                -121.22812                  
  D60                 164.9362                   
  D61                  36.26455                  
  D62                 -62.77894                  
  D63                -135.8445                   
  D64                   9.06888                  
  D65                  -0.80921                  
  D66                  -6.70406                  
  D67                  77.22237                  
  D68                -176.2048                   
  D69                  67.76623                  
  D70                  -2.91463                  
  D71                   2.87012                  
  D72                 -30.67283                  
  D73                 -16.48922                  
  D74                  59.49795                  
  D75                -111.12714                  
  D76                  49.27201                  
  D77                -145.45216                  
  D78                  22.80658                  
  D79                 147.25036                  
  D80                  42.12164                  
  D81                  21.12085                  
  D82                -165.60135                  
  D83                 125.07394                  
  D84                 104.62184                  
  D85                -168.46817                  
  D86                 -22.88588                  
  D87                -171.30807                  
  D88                 176.25504                  
  D89                   3.99312                  
  D90                   0.36208                  
  D91                  -4.65825                  
  D92                -175.25205                  
  D93                 113.12793                  
  D94                 112.54622                  
  D95                  -1.03016                  
  D96                   1.39646                  
  D97                  25.37992                  
  D98                -111.79412                  
  D99                -115.27749                  
  D100                  1.40465                  
  D101                 -2.35587                  
  D102                  2.52745                  
  D103                 -0.89846                  
  D104               -179.06974                  
  D105                 -0.85591                  
  D106                  0.14426                  
  D107                -27.06128                  
  D108                -72.49649                  
  D109                155.70033                  
  D110                 35.18601                  
  D111               -142.18446                  
  D112                 85.75107                  
  D113                -54.8186                   
  D114               -179.38899                  
  D115                 -1.51241                  
  D116                  1.33172                  
  D117                 -0.75165                  
  D118               -178.91834                  
  D119                157.64797                  
  D120                158.15285                  
  D121                  0.60517                  
  D122                  0.10036                  
  D123                -20.918                    
  D124                107.56688                  
  D125               -167.79411                  
  D126                 -3.13104                  
  D127                 -0.73449                  
  D128                  5.0936                   
  D129                175.73317                  
  D130               -102.21942                  
  D131                -99.14826                  
  D132                  1.5852                   
  D133                 -0.1732                   
  D134                -18.10026                  
  D135                 18.33166                  
  D136               -114.70965                  
  D137                -44.96499                  
  D138                 84.68661                  
  D139               -116.61328                  
  D140               -152.40496                  
  D141               -131.46498                  
  D142                 72.09073                  
  D143                125.41774                  
  D144                128.52108                  
  D145               -175.37544                  
  D146                 35.02795                  
  D147               -173.71634                  
  D148                 10.87892                  
 

 GradGradGradGradGradGradGradGradGradGradGradGradGradGradGradGradGradGrad
 Berny optimization.
 Initialization pass.
                           ----------------------------
                           !    Initial Parameters    !
                           ! (Angstroms and Degrees)  !
 --------------------------                            --------------------------
 ! Name  Definition              Value          Derivative Info.                !
 --------------------------------------------------------------------------------
 ! R1    R(1,2)                  1.3919         estimate D2E/DX2                !
 ! R2    R(1,8)                  1.3949         estimate D2E/DX2                !
 ! R3    R(1,14)                 1.3929         estimate D2E/DX2                !
 ! R4    R(2,3)                  1.3493         estimate D2E/DX2                !
 ! R5    R(2,7)                  1.3488         estimate D2E/DX2                !
 ! R6    R(3,4)                  1.3399         estimate D2E/DX2                !
 ! R7    R(3,20)                 1.1028         estimate D2E/DX2                !
 ! R8    R(4,5)                  1.3395         estimate D2E/DX2                !
 ! R9    R(4,21)                 1.1038         estimate D2E/DX2                !
 ! R10   R(5,6)                  1.339          estimate D2E/DX2                !
 ! R11   R(5,22)                 1.539          estimate D2E/DX2                !
 ! R12   R(6,7)                  1.3413         estimate D2E/DX2                !
 ! R13   R(6,23)                 1.1041         estimate D2E/DX2                !
 ! R14   R(7,24)                 1.1025         estimate D2E/DX2                !
 ! R15   R(8,9)                  1.348          estimate D2E/DX2                !
 ! R16   R(8,13)                 1.3471         estimate D2E/DX2                !
 ! R17   R(9,10)                 1.3429         estimate D2E/DX2                !
 ! R18   R(9,25)                 1.1023         estimate D2E/DX2                !
 ! R19   R(10,11)                1.3467         estimate D2E/DX2                !
 ! R20   R(10,26)                1.1019         estimate D2E/DX2                !
 ! R21   R(11,12)                1.3459         estimate D2E/DX2                !
 ! R22   R(11,27)                1.376          estimate D2E/DX2                !
 ! R23   R(12,13)                1.3414         estimate D2E/DX2                !
 ! R24   R(12,28)                1.1043         estimate D2E/DX2                !
 ! R25   R(13,29)                1.1031         estimate D2E/DX2                !
 ! R26   R(14,15)                1.347          estimate D2E/DX2                !
 ! R27   R(14,19)                1.3475         estimate D2E/DX2                !
 ! R28   R(15,16)                1.3413         estimate D2E/DX2                !
 ! R29   R(15,30)                1.1031         estimate D2E/DX2                !
 ! R30   R(16,17)                1.3461         estimate D2E/DX2                !
 ! R31   R(16,31)                1.1047         estimate D2E/DX2                !
 ! R32   R(17,18)                1.3476         estimate D2E/DX2                !
 ! R33   R(17,32)                1.375          estimate D2E/DX2                !
 ! R34   R(18,19)                1.3428         estimate D2E/DX2                !
 ! R35   R(18,33)                1.1018         estimate D2E/DX2                !
 ! R36   R(19,34)                1.1047         estimate D2E/DX2                !
 ! R37   R(22,35)                1.5429         estimate D2E/DX2                !
 ! R38   R(22,38)                1.8037         estimate D2E/DX2                !
 ! R39   R(27,81)                1.4147         estimate D2E/DX2                !
 ! R40   R(32,80)                1.4151         estimate D2E/DX2                !
 ! R41   R(35,36)                1.343          estimate D2E/DX2                !
 ! R42   R(35,50)                1.2636         estimate D2E/DX2                !
 ! R43   R(36,37)                1.5472         estimate D2E/DX2                !
 ! R44   R(36,51)                1.2615         estimate D2E/DX2                !
 ! R45   R(37,38)                1.8053         estimate D2E/DX2                !
 ! R46   R(37,39)                1.5457         estimate D2E/DX2                !
 ! R47   R(39,40)                1.3406         estimate D2E/DX2                !
 ! R48   R(39,44)                1.3395         estimate D2E/DX2                !
 ! R49   R(40,41)                1.3424         estimate D2E/DX2                !
 ! R50   R(40,52)                1.1031         estimate D2E/DX2                !
 ! R51   R(41,42)                1.3516         estimate D2E/DX2                !
 ! R52   R(41,53)                1.1042         estimate D2E/DX2                !
 ! R53   R(42,43)                1.3478         estimate D2E/DX2                !
 ! R54   R(42,45)                1.3534         estimate D2E/DX2                !
 ! R55   R(43,44)                1.3429         estimate D2E/DX2                !
 ! R56   R(43,54)                1.0968         estimate D2E/DX2                !
 ! R57   R(44,55)                1.1033         estimate D2E/DX2                !
 ! R58   R(45,46)                1.35           estimate D2E/DX2                !
 ! R59   R(45,56)                1.1026         estimate D2E/DX2                !
 ! R60   R(46,47)                1.3671         estimate D2E/DX2                !
 ! R61   R(46,57)                1.3171         estimate D2E/DX2                !
 ! R62   R(47,48)                1.2115         estimate D2E/DX2                !
 ! R63   R(47,49)                1.3543         estimate D2E/DX2                !
 ! R64   R(49,58)                0.9712         estimate D2E/DX2                !
 ! R65   R(50,60)                1.2769         estimate D2E/DX2                !
 ! R66   R(51,61)                1.2733         estimate D2E/DX2                !
 ! R67   R(57,59)                1.1603         estimate D2E/DX2                !
 ! R68   R(60,61)                1.3641         estimate D2E/DX2                !
 ! R69   R(60,62)                1.3607         estimate D2E/DX2                !
 ! R70   R(61,65)                1.3544         estimate D2E/DX2                !
 ! R71   R(62,63)                1.3481         estimate D2E/DX2                !
 ! R72   R(62,73)                1.3504         estimate D2E/DX2                !
 ! R73   R(63,70)                1.3418         estimate D2E/DX2                !
 ! R74   R(63,150)               1.101          estimate D2E/DX2                !
 ! R75   R(64,65)                1.3466         estimate D2E/DX2                !
 ! R76   R(64,69)                1.3401         estimate D2E/DX2                !
 ! R77   R(64,151)               1.1017         estimate D2E/DX2                !
 ! R78   R(65,66)                1.348          estimate D2E/DX2                !
 ! R79   R(66,67)                1.3428         estimate D2E/DX2                !
 ! R80   R(66,74)                1.1044         estimate D2E/DX2                !
 ! R81   R(67,68)                1.3484         estimate D2E/DX2                !
 ! R82   R(67,75)                1.1045         estimate D2E/DX2                !
 ! R83   R(68,69)                1.3456         estimate D2E/DX2                !
 ! R84   R(68,88)                1.3885         estimate D2E/DX2                !
 ! R85   R(69,76)                1.1031         estimate D2E/DX2                !
 ! R86   R(70,71)                1.3467         estimate D2E/DX2                !
 ! R87   R(70,77)                1.1011         estimate D2E/DX2                !
 ! R88   R(71,72)                1.3501         estimate D2E/DX2                !
 ! R89   R(71,114)               1.4014         estimate D2E/DX2                !
 ! R90   R(72,73)                1.346          estimate D2E/DX2                !
 ! R91   R(72,78)                1.1033         estimate D2E/DX2                !
 ! R92   R(73,79)                1.1043         estimate D2E/DX2                !
 ! R93   R(80,82)                1.117          estimate D2E/DX2                !
 ! R94   R(80,83)                1.1153         estimate D2E/DX2                !
 ! R95   R(80,84)                1.1155         estimate D2E/DX2                !
 ! R96   R(81,85)                1.1169         estimate D2E/DX2                !
 ! R97   R(81,86)                1.1164         estimate D2E/DX2                !
 ! R98   R(81,87)                1.1168         estimate D2E/DX2                !
 ! R99   R(88,90)                1.3883         estimate D2E/DX2                !
 ! R100  R(88,101)               1.3848         estimate D2E/DX2                !
 ! R101  R(89,90)                1.3474         estimate D2E/DX2                !
 ! R102  R(89,94)                1.3429         estimate D2E/DX2                !
 ! R103  R(89,97)                1.1031         estimate D2E/DX2                !
 ! R104  R(90,91)                1.3461         estimate D2E/DX2                !
 ! R105  R(91,92)                1.3405         estimate D2E/DX2                !
 ! R106  R(91,96)                1.1042         estimate D2E/DX2                !
 ! R107  R(92,93)                1.3446         estimate D2E/DX2                !
 ! R108  R(92,99)                1.1043         estimate D2E/DX2                !
 ! R109  R(93,94)                1.3467         estimate D2E/DX2                !
 ! R110  R(93,98)                1.3717         estimate D2E/DX2                !
 ! R111  R(94,95)                1.1054         estimate D2E/DX2                !
 ! R112  R(98,110)               1.4168         estimate D2E/DX2                !
 ! R113  R(100,101)              1.3463         estimate D2E/DX2                !
 ! R114  R(100,105)              1.3407         estimate D2E/DX2                !
 ! R115  R(100,107)              1.1051         estimate D2E/DX2                !
 ! R116  R(101,102)              1.3473         estimate D2E/DX2                !
 ! R117  R(102,103)              1.3439         estimate D2E/DX2                !
 ! R118  R(102,106)              1.1044         estimate D2E/DX2                !
 ! R119  R(103,104)              1.3474         estimate D2E/DX2                !
 ! R120  R(103,109)              1.1053         estimate D2E/DX2                !
 ! R121  R(104,105)              1.3464         estimate D2E/DX2                !
 ! R122  R(104,108)              1.3725         estimate D2E/DX2                !
 ! R123  R(105,145)              1.1062         estimate D2E/DX2                !
 ! R124  R(108,146)              1.4151         estimate D2E/DX2                !
 ! R125  R(110,111)              1.1157         estimate D2E/DX2                !
 ! R126  R(110,112)              1.116          estimate D2E/DX2                !
 ! R127  R(110,113)              1.1172         estimate D2E/DX2                !
 ! R128  R(114,116)              1.3967         estimate D2E/DX2                !
 ! R129  R(114,127)              1.3955         estimate D2E/DX2                !
 ! R130  R(115,116)              1.3486         estimate D2E/DX2                !
 ! R131  R(115,120)              1.342          estimate D2E/DX2                !
 ! R132  R(115,123)              1.1046         estimate D2E/DX2                !
 ! R133  R(116,117)              1.3473         estimate D2E/DX2                !
 ! R134  R(117,118)              1.343          estimate D2E/DX2                !
 ! R135  R(117,122)              1.1028         estimate D2E/DX2                !
 ! R136  R(118,119)              1.3474         estimate D2E/DX2                !
 ! R137  R(118,125)              1.1018         estimate D2E/DX2                !
 ! R138  R(119,120)              1.3458         estimate D2E/DX2                !
 ! R139  R(119,124)              1.3756         estimate D2E/DX2                !
 ! R140  R(120,121)              1.105          estimate D2E/DX2                !
 ! R141  R(124,137)              1.4161         estimate D2E/DX2                !
 ! R142  R(126,127)              1.3482         estimate D2E/DX2                !
 ! R143  R(126,131)              1.3409         estimate D2E/DX2                !
 ! R144  R(126,134)              1.1037         estimate D2E/DX2                !
 ! R145  R(127,128)              1.3479         estimate D2E/DX2                !
 ! R146  R(128,129)              1.3427         estimate D2E/DX2                !
 ! R147  R(128,133)              1.1033         estimate D2E/DX2                !
 ! R148  R(129,130)              1.3454         estimate D2E/DX2                !
 ! R149  R(129,136)              1.1039         estimate D2E/DX2                !
 ! R150  R(130,131)              1.3451         estimate D2E/DX2                !
 ! R151  R(130,135)              1.3708         estimate D2E/DX2                !
 ! R152  R(131,132)              1.1041         estimate D2E/DX2                !
 ! R153  R(135,138)              1.4155         estimate D2E/DX2                !
 ! R154  R(137,139)              1.1144         estimate D2E/DX2                !
 ! R155  R(137,140)              1.1149         estimate D2E/DX2                !
 ! R156  R(137,141)              1.1169         estimate D2E/DX2                !
 ! R157  R(138,142)              1.1159         estimate D2E/DX2                !
 ! R158  R(138,143)              1.1157         estimate D2E/DX2                !
 ! R159  R(138,144)              1.1157         estimate D2E/DX2                !
 ! R160  R(146,147)              1.1158         estimate D2E/DX2                !
 ! R161  R(146,148)              1.1153         estimate D2E/DX2                !
 ! R162  R(146,149)              1.1154         estimate D2E/DX2                !
 ! A1    A(2,1,8)              119.4108         estimate D2E/DX2                !
 ! A2    A(2,1,14)             119.4814         estimate D2E/DX2                !
 ! A3    A(8,1,14)             120.4436         estimate D2E/DX2                !
 ! A4    A(1,2,3)              122.1522         estimate D2E/DX2                !
 ! A5    A(1,2,7)              121.0125         estimate D2E/DX2                !
 ! A6    A(3,2,7)              116.8351         estimate D2E/DX2                !
 ! A7    A(2,3,4)              121.7384         estimate D2E/DX2                !
 ! A8    A(2,3,20)             120.662          estimate D2E/DX2                !
 ! A9    A(4,3,20)             117.5873         estimate D2E/DX2                !
 ! A10   A(3,4,5)              120.2627         estimate D2E/DX2                !
 ! A11   A(3,4,21)             121.0268         estimate D2E/DX2                !
 ! A12   A(5,4,21)             118.7096         estimate D2E/DX2                !
 ! A13   A(4,5,6)              119.1814         estimate D2E/DX2                !
 ! A14   A(4,5,22)             116.288          estimate D2E/DX2                !
 ! A15   A(6,5,22)             118.6558         estimate D2E/DX2                !
 ! A16   A(5,6,7)              120.0445         estimate D2E/DX2                !
 ! A17   A(5,6,23)             118.8388         estimate D2E/DX2                !
 ! A18   A(7,6,23)             121.1149         estimate D2E/DX2                !
 ! A19   A(2,7,6)              121.9201         estimate D2E/DX2                !
 ! A20   A(2,7,24)             120.3342         estimate D2E/DX2                !
 ! A21   A(6,7,24)             117.7401         estimate D2E/DX2                !
 ! A22   A(1,8,9)              123.0047         estimate D2E/DX2                !
 ! A23   A(1,8,13)             121.5655         estimate D2E/DX2                !
 ! A24   A(9,8,13)             115.4275         estimate D2E/DX2                !
 ! A25   A(8,9,10)             122.3788         estimate D2E/DX2                !
 ! A26   A(8,9,25)             120.2988         estimate D2E/DX2                !
 ! A27   A(10,9,25)            117.314          estimate D2E/DX2                !
 ! A28   A(9,10,11)            122.187          estimate D2E/DX2                !
 ! A29   A(9,10,26)            117.0448         estimate D2E/DX2                !
 ! A30   A(11,10,26)           120.7682         estimate D2E/DX2                !
 ! A31   A(10,11,12)           115.3147         estimate D2E/DX2                !
 ! A32   A(10,11,27)           125.444          estimate D2E/DX2                !
 ! A33   A(12,11,27)           119.2402         estimate D2E/DX2                !
 ! A34   A(11,12,13)           122.6448         estimate D2E/DX2                !
 ! A35   A(11,12,28)           118.8302         estimate D2E/DX2                !
 ! A36   A(13,12,28)           118.5238         estimate D2E/DX2                !
 ! A37   A(8,13,12)            122.0425         estimate D2E/DX2                !
 ! A38   A(8,13,29)            119.9656         estimate D2E/DX2                !
 ! A39   A(12,13,29)           117.9842         estimate D2E/DX2                !
 ! A40   A(1,14,15)            121.2652         estimate D2E/DX2                !
 ! A41   A(1,14,19)            122.9801         estimate D2E/DX2                !
 ! A42   A(15,14,19)           115.7544         estimate D2E/DX2                !
 ! A43   A(14,15,16)           121.9795         estimate D2E/DX2                !
 ! A44   A(14,15,30)           120.2847         estimate D2E/DX2                !
 ! A45   A(16,15,30)           117.7161         estimate D2E/DX2                !
 ! A46   A(15,16,17)           122.4349         estimate D2E/DX2                !
 ! A47   A(15,16,31)           118.9556         estimate D2E/DX2                !
 ! A48   A(17,16,31)           118.6056         estimate D2E/DX2                !
 ! A49   A(16,17,18)           115.5416         estimate D2E/DX2                !
 ! A50   A(16,17,32)           118.8297         estimate D2E/DX2                !
 ! A51   A(18,17,32)           125.613          estimate D2E/DX2                !
 ! A52   A(17,18,19)           122.1703         estimate D2E/DX2                !
 ! A53   A(17,18,33)           120.8568         estimate D2E/DX2                !
 ! A54   A(19,18,33)           116.973          estimate D2E/DX2                !
 ! A55   A(14,19,18)           122.1154         estimate D2E/DX2                !
 ! A56   A(14,19,34)           120.1339         estimate D2E/DX2                !
 ! A57   A(18,19,34)           117.7489         estimate D2E/DX2                !
 ! A58   A(5,22,35)            125.2839         estimate D2E/DX2                !
 ! A59   A(5,22,38)            122.5025         estimate D2E/DX2                !
 ! A60   A(35,22,38)           110.7649         estimate D2E/DX2                !
 ! A61   A(11,27,81)           118.7627         estimate D2E/DX2                !
 ! A62   A(17,32,80)           118.7065         estimate D2E/DX2                !
 ! A63   A(22,35,36)           111.9008         estimate D2E/DX2                !
 ! A64   A(22,35,50)           124.6932         estimate D2E/DX2                !
 ! A65   A(36,35,50)           117.7698         estimate D2E/DX2                !
 ! A66   A(35,36,37)           115.3684         estimate D2E/DX2                !
 ! A67   A(35,36,51)           115.592          estimate D2E/DX2                !
 ! A68   A(37,36,51)           121.4193         estimate D2E/DX2                !
 ! A69   A(36,37,38)           108.182          estimate D2E/DX2                !
 ! A70   A(36,37,39)           118.2728         estimate D2E/DX2                !
 ! A71   A(38,37,39)           119.9653         estimate D2E/DX2                !
 ! A72   A(22,38,37)            91.9572         estimate D2E/DX2                !
 ! A73   A(37,39,40)           118.2503         estimate D2E/DX2                !
 ! A74   A(37,39,44)           116.5264         estimate D2E/DX2                !
 ! A75   A(40,39,44)           117.7183         estimate D2E/DX2                !
 ! A76   A(39,40,41)           120.7721         estimate D2E/DX2                !
 ! A77   A(39,40,52)           118.8218         estimate D2E/DX2                !
 ! A78   A(41,40,52)           120.4036         estimate D2E/DX2                !
 ! A79   A(40,41,42)           122.4341         estimate D2E/DX2                !
 ! A80   A(40,41,53)           116.279          estimate D2E/DX2                !
 ! A81   A(42,41,53)           121.2867         estimate D2E/DX2                !
 ! A82   A(41,42,43)           115.7065         estimate D2E/DX2                !
 ! A83   A(41,42,45)           118.4637         estimate D2E/DX2                !
 ! A84   A(43,42,45)           125.8294         estimate D2E/DX2                !
 ! A85   A(42,43,44)           122.215          estimate D2E/DX2                !
 ! A86   A(42,43,54)           122.5065         estimate D2E/DX2                !
 ! A87   A(44,43,54)           115.2775         estimate D2E/DX2                !
 ! A88   A(39,44,43)           121.0966         estimate D2E/DX2                !
 ! A89   A(39,44,55)           117.9138         estimate D2E/DX2                !
 ! A90   A(43,44,55)           120.9834         estimate D2E/DX2                !
 ! A91   A(42,45,46)           131.2455         estimate D2E/DX2                !
 ! A92   A(42,45,56)           113.954          estimate D2E/DX2                !
 ! A93   A(46,45,56)           114.7999         estimate D2E/DX2                !
 ! A94   A(45,46,47)           119.9804         estimate D2E/DX2                !
 ! A95   A(45,46,57)           125.9617         estimate D2E/DX2                !
 ! A96   A(47,46,57)           114.0576         estimate D2E/DX2                !
 ! A97   A(46,47,48)           123.1229         estimate D2E/DX2                !
 ! A98   A(46,47,49)           122.5954         estimate D2E/DX2                !
 ! A99   A(48,47,49)           114.2813         estimate D2E/DX2                !
 ! A100  A(47,49,58)           104.1379         estimate D2E/DX2                !
 ! A101  A(35,50,60)           121.7008         estimate D2E/DX2                !
 ! A102  A(36,51,61)           119.7026         estimate D2E/DX2                !
 ! A103  A(50,60,61)           114.355          estimate D2E/DX2                !
 ! A104  A(50,60,62)           116.8804         estimate D2E/DX2                !
 ! A105  A(61,60,62)           128.6494         estimate D2E/DX2                !
 ! A106  A(51,61,60)           113.9647         estimate D2E/DX2                !
 ! A107  A(51,61,65)           116.6226         estimate D2E/DX2                !
 ! A108  A(60,61,65)           128.7885         estimate D2E/DX2                !
 ! A109  A(60,62,63)           123.3875         estimate D2E/DX2                !
 ! A110  A(60,62,73)           123.2004         estimate D2E/DX2                !
 ! A111  A(63,62,73)           113.1695         estimate D2E/DX2                !
 ! A112  A(62,63,70)           123.8888         estimate D2E/DX2                !
 ! A113  A(62,63,150)          121.6491         estimate D2E/DX2                !
 ! A114  A(70,63,150)          114.3921         estimate D2E/DX2                !
 ! A115  A(65,64,69)           122.6265         estimate D2E/DX2                !
 ! A116  A(65,64,151)          121.1433         estimate D2E/DX2                !
 ! A117  A(69,64,151)          116.2265         estimate D2E/DX2                !
 ! A118  A(61,65,64)           122.357          estimate D2E/DX2                !
 ! A119  A(61,65,66)           122.6266         estimate D2E/DX2                !
 ! A120  A(64,65,66)           114.8984         estimate D2E/DX2                !
 ! A121  A(65,66,67)           121.7069         estimate D2E/DX2                !
 ! A122  A(65,66,74)           122.0844         estimate D2E/DX2                !
 ! A123  A(67,66,74)           116.1049         estimate D2E/DX2                !
 ! A124  A(66,67,68)           122.7744         estimate D2E/DX2                !
 ! A125  A(66,67,75)           117.1109         estimate D2E/DX2                !
 ! A126  A(68,67,75)           120.0918         estimate D2E/DX2                !
 ! A127  A(67,68,69)           114.8729         estimate D2E/DX2                !
 ! A128  A(67,68,88)           122.8787         estimate D2E/DX2                !
 ! A129  A(69,68,88)           122.2186         estimate D2E/DX2                !
 ! A130  A(64,69,68)           122.0777         estimate D2E/DX2                !
 ! A131  A(64,69,76)           116.9571         estimate D2E/DX2                !
 ! A132  A(68,69,76)           120.9574         estimate D2E/DX2                !
 ! A133  A(63,70,71)           122.9431         estimate D2E/DX2                !
 ! A134  A(63,70,77)           116.2666         estimate D2E/DX2                !
 ! A135  A(71,70,77)           120.7685         estimate D2E/DX2                !
 ! A136  A(70,71,72)           113.2832         estimate D2E/DX2                !
 ! A137  A(70,71,114)          123.1702         estimate D2E/DX2                !
 ! A138  A(72,71,114)          123.5197         estimate D2E/DX2                !
 ! A139  A(71,72,73)           123.701          estimate D2E/DX2                !
 ! A140  A(71,72,78)           119.896          estimate D2E/DX2                !
 ! A141  A(73,72,78)           116.4025         estimate D2E/DX2                !
 ! A142  A(62,73,72)           122.8065         estimate D2E/DX2                !
 ! A143  A(62,73,79)           121.1924         estimate D2E/DX2                !
 ! A144  A(72,73,79)           115.9998         estimate D2E/DX2                !
 ! A145  A(32,80,82)           108.0505         estimate D2E/DX2                !
 ! A146  A(32,80,83)           110.224          estimate D2E/DX2                !
 ! A147  A(32,80,84)           109.9084         estimate D2E/DX2                !
 ! A148  A(82,80,83)           108.4708         estimate D2E/DX2                !
 ! A149  A(82,80,84)           108.413          estimate D2E/DX2                !
 ! A150  A(83,80,84)           111.6744         estimate D2E/DX2                !
 ! A151  A(27,81,85)           110.4813         estimate D2E/DX2                !
 ! A152  A(27,81,86)           110.4235         estimate D2E/DX2                !
 ! A153  A(27,81,87)           107.7399         estimate D2E/DX2                !
 ! A154  A(85,81,86)           111.9133         estimate D2E/DX2                !
 ! A155  A(85,81,87)           108.0986         estimate D2E/DX2                !
 ! A156  A(86,81,87)           108.0329         estimate D2E/DX2                !
 ! A157  A(68,88,90)           121.0068         estimate D2E/DX2                !
 ! A158  A(68,88,101)          119.5482         estimate D2E/DX2                !
 ! A159  A(90,88,101)          115.4517         estimate D2E/DX2                !
 ! A160  A(90,89,94)           121.8908         estimate D2E/DX2                !
 ! A161  A(90,89,97)           120.4151         estimate D2E/DX2                !
 ! A162  A(94,89,97)           117.6834         estimate D2E/DX2                !
 ! A163  A(88,90,89)           123.532          estimate D2E/DX2                !
 ! A164  A(88,90,91)           120.2239         estimate D2E/DX2                !
 ! A165  A(89,90,91)           116.1381         estimate D2E/DX2                !
 ! A166  A(90,91,92)           121.8484         estimate D2E/DX2                !
 ! A167  A(90,91,96)           119.9141         estimate D2E/DX2                !
 ! A168  A(92,91,96)           118.2298         estimate D2E/DX2                !
 ! A169  A(91,92,93)           121.8942         estimate D2E/DX2                !
 ! A170  A(91,92,99)           119.1284         estimate D2E/DX2                !
 ! A171  A(93,92,99)           118.9689         estimate D2E/DX2                !
 ! A172  A(92,93,94)           116.2934         estimate D2E/DX2                !
 ! A173  A(92,93,98)           120.6677         estimate D2E/DX2                !
 ! A174  A(94,93,98)           122.8969         estimate D2E/DX2                !
 ! A175  A(89,94,93)           121.641          estimate D2E/DX2                !
 ! A176  A(89,94,95)           118.7681         estimate D2E/DX2                !
 ! A177  A(93,94,95)           119.5908         estimate D2E/DX2                !
 ! A178  A(93,98,110)          113.666          estimate D2E/DX2                !
 ! A179  A(101,100,105)        121.6871         estimate D2E/DX2                !
 ! A180  A(101,100,107)        119.6724         estimate D2E/DX2                !
 ! A181  A(105,100,107)        118.64           estimate D2E/DX2                !
 ! A182  A(88,101,100)         119.5151         estimate D2E/DX2                !
 ! A183  A(88,101,102)         123.35           estimate D2E/DX2                !
 ! A184  A(100,101,102)        117.1342         estimate D2E/DX2                !
 ! A185  A(101,102,103)        120.9024         estimate D2E/DX2                !
 ! A186  A(101,102,106)        119.9176         estimate D2E/DX2                !
 ! A187  A(103,102,106)        119.1466         estimate D2E/DX2                !
 ! A188  A(102,103,104)        122.0858         estimate D2E/DX2                !
 ! A189  A(102,103,109)        118.9347         estimate D2E/DX2                !
 ! A190  A(104,103,109)        118.9795         estimate D2E/DX2                !
 ! A191  A(103,104,105)        116.6095         estimate D2E/DX2                !
 ! A192  A(103,104,108)        121.5006         estimate D2E/DX2                !
 ! A193  A(105,104,108)        121.6377         estimate D2E/DX2                !
 ! A194  A(100,105,104)        121.5288         estimate D2E/DX2                !
 ! A195  A(100,105,145)        118.692          estimate D2E/DX2                !
 ! A196  A(104,105,145)        119.778          estimate D2E/DX2                !
 ! A197  A(104,108,146)        114.9117         estimate D2E/DX2                !
 ! A198  A(98,110,111)         108.3165         estimate D2E/DX2                !
 ! A199  A(98,110,112)         110.3893         estimate D2E/DX2                !
 ! A200  A(98,110,113)         109.8624         estimate D2E/DX2                !
 ! A201  A(111,110,112)        109.0335         estimate D2E/DX2                !
 ! A202  A(111,110,113)        108.8137         estimate D2E/DX2                !
 ! A203  A(112,110,113)        110.3772         estimate D2E/DX2                !
 ! A204  A(71,114,116)         120.9546         estimate D2E/DX2                !
 ! A205  A(71,114,127)         121.1954         estimate D2E/DX2                !
 ! A206  A(116,114,127)        116.9357         estimate D2E/DX2                !
 ! A207  A(116,115,120)        122.1702         estimate D2E/DX2                !
 ! A208  A(116,115,123)        120.1382         estimate D2E/DX2                !
 ! A209  A(120,115,123)        117.672          estimate D2E/DX2                !
 ! A210  A(114,116,115)        121.9883         estimate D2E/DX2                !
 ! A211  A(114,116,117)        122.562          estimate D2E/DX2                !
 ! A212  A(115,116,117)        115.4468         estimate D2E/DX2                !
 ! A213  A(116,117,118)        122.2163         estimate D2E/DX2                !
 ! A214  A(116,117,122)        119.8672         estimate D2E/DX2                !
 ! A215  A(118,117,122)        117.9163         estimate D2E/DX2                !
 ! A216  A(117,118,119)        122.3437         estimate D2E/DX2                !
 ! A217  A(117,118,125)        116.904          estimate D2E/DX2                !
 ! A218  A(119,118,125)        120.7506         estimate D2E/DX2                !
 ! A219  A(118,119,120)        115.3478         estimate D2E/DX2                !
 ! A220  A(118,119,124)        125.2749         estimate D2E/DX2                !
 ! A221  A(120,119,124)        119.3324         estimate D2E/DX2                !
 ! A222  A(115,120,119)        122.4562         estimate D2E/DX2                !
 ! A223  A(115,120,121)        118.7856         estimate D2E/DX2                !
 ! A224  A(119,120,121)        118.7558         estimate D2E/DX2                !
 ! A225  A(119,124,137)        118.4881         estimate D2E/DX2                !
 ! A226  A(127,126,131)        122.2247         estimate D2E/DX2                !
 ! A227  A(127,126,134)        119.9801         estimate D2E/DX2                !
 ! A228  A(131,126,134)        117.7894         estimate D2E/DX2                !
 ! A229  A(114,127,126)        120.1413         estimate D2E/DX2                !
 ! A230  A(114,127,128)        124.1373         estimate D2E/DX2                !
 ! A231  A(126,127,128)        115.6943         estimate D2E/DX2                !
 ! A232  A(127,128,129)        121.8932         estimate D2E/DX2                !
 ! A233  A(127,128,133)        120.4625         estimate D2E/DX2                !
 ! A234  A(129,128,133)        117.6382         estimate D2E/DX2                !
 ! A235  A(128,129,130)        122.1557         estimate D2E/DX2                !
 ! A236  A(128,129,136)        118.8526         estimate D2E/DX2                !
 ! A237  A(130,129,136)        118.9891         estimate D2E/DX2                !
 ! A238  A(129,130,131)        115.8402         estimate D2E/DX2                !
 ! A239  A(129,130,135)        121.697          estimate D2E/DX2                !
 ! A240  A(131,130,135)        122.0897         estimate D2E/DX2                !
 ! A241  A(126,131,130)        121.8965         estimate D2E/DX2                !
 ! A242  A(126,131,132)        119.1989         estimate D2E/DX2                !
 ! A243  A(130,131,132)        118.8896         estimate D2E/DX2                !
 ! A244  A(130,135,138)        113.7425         estimate D2E/DX2                !
 ! A245  A(124,137,139)        107.7279         estimate D2E/DX2                !
 ! A246  A(124,137,140)        110.7944         estimate D2E/DX2                !
 ! A247  A(124,137,141)        109.8683         estimate D2E/DX2                !
 ! A248  A(139,137,140)        107.6113         estimate D2E/DX2                !
 ! A249  A(139,137,141)        108.8493         estimate D2E/DX2                !
 ! A250  A(140,137,141)        111.8564         estimate D2E/DX2                !
 ! A251  A(135,138,142)        110.3065         estimate D2E/DX2                !
 ! A252  A(135,138,143)        109.9355         estimate D2E/DX2                !
 ! A253  A(135,138,144)        108.2706         estimate D2E/DX2                !
 ! A254  A(142,138,143)        110.229          estimate D2E/DX2                !
 ! A255  A(142,138,144)        108.9101         estimate D2E/DX2                !
 ! A256  A(143,138,144)        109.147          estimate D2E/DX2                !
 ! A257  A(108,146,147)        107.9896         estimate D2E/DX2                !
 ! A258  A(108,146,148)        109.8851         estimate D2E/DX2                !
 ! A259  A(108,146,149)        110.4562         estimate D2E/DX2                !
 ! A260  A(147,146,148)        109.0538         estimate D2E/DX2                !
 ! A261  A(147,146,149)        108.7969         estimate D2E/DX2                !
 ! A262  A(148,146,149)        110.5994         estimate D2E/DX2                !
 ! A263  L(46,57,59,1,-1)      181.8523         estimate D2E/DX2                !
 ! A264  L(46,57,59,1,-2)      180.2891         estimate D2E/DX2                !
 ! D1    D(8,1,2,3)            137.0034         estimate D2E/DX2                !
 ! D2    D(8,1,2,7)            -43.1531         estimate D2E/DX2                !
 ! D3    D(14,1,2,3)           -33.7001         estimate D2E/DX2                !
 ! D4    D(14,1,2,7)           146.1434         estimate D2E/DX2                !
 ! D5    D(2,1,8,9)            -28.5685         estimate D2E/DX2                !
 ! D6    D(2,1,8,13)           150.8496         estimate D2E/DX2                !
 ! D7    D(14,1,8,9)           142.0438         estimate D2E/DX2                !
 ! D8    D(14,1,8,13)          -38.5382         estimate D2E/DX2                !
 ! D9    D(2,1,14,15)          -40.7775         estimate D2E/DX2                !
 ! D10   D(2,1,14,19)          139.4296         estimate D2E/DX2                !
 ! D11   D(8,1,14,15)          148.6168         estimate D2E/DX2                !
 ! D12   D(8,1,14,19)          -31.176          estimate D2E/DX2                !
 ! D13   D(1,2,3,4)           -179.6509         estimate D2E/DX2                !
 ! D14   D(1,2,3,20)            -0.954          estimate D2E/DX2                !
 ! D15   D(7,2,3,4)              0.4993         estimate D2E/DX2                !
 ! D16   D(7,2,3,20)           179.1963         estimate D2E/DX2                !
 ! D17   D(1,2,7,6)           -179.965          estimate D2E/DX2                !
 ! D18   D(1,2,7,24)            -0.8531         estimate D2E/DX2                !
 ! D19   D(3,2,7,6)             -0.1135         estimate D2E/DX2                !
 ! D20   D(3,2,7,24)           178.9985         estimate D2E/DX2                !
 ! D21   D(2,3,4,5)             -1.2685         estimate D2E/DX2                !
 ! D22   D(2,3,4,21)           179.0898         estimate D2E/DX2                !
 ! D23   D(20,3,4,5)           179.9962         estimate D2E/DX2                !
 ! D24   D(20,3,4,21)            0.3545         estimate D2E/DX2                !
 ! D25   D(3,4,5,6)              1.6132         estimate D2E/DX2                !
 ! D26   D(3,4,5,22)          -151.069          estimate D2E/DX2                !
 ! D27   D(21,4,5,6)          -178.7368         estimate D2E/DX2                !
 ! D28   D(21,4,5,22)           28.5809         estimate D2E/DX2                !
 ! D29   D(4,5,6,7)             -1.2322         estimate D2E/DX2                !
 ! D30   D(4,5,6,23)           179.2524         estimate D2E/DX2                !
 ! D31   D(22,5,6,7)           150.8053         estimate D2E/DX2                !
 ! D32   D(22,5,6,23)          -28.7101         estimate D2E/DX2                !
 ! D33   D(4,5,22,35)         -132.2188         estimate D2E/DX2                !
 ! D34   D(4,5,22,38)           62.8032         estimate D2E/DX2                !
 ! D35   D(6,5,22,35)           74.9495         estimate D2E/DX2                !
 ! D36   D(6,5,22,38)          -90.0285         estimate D2E/DX2                !
 ! D37   D(5,6,7,2)              0.4928         estimate D2E/DX2                !
 ! D38   D(5,6,7,24)          -178.6412         estimate D2E/DX2                !
 ! D39   D(23,6,7,2)           179.9969         estimate D2E/DX2                !
 ! D40   D(23,6,7,24)            0.8629         estimate D2E/DX2                !
 ! D41   D(1,8,9,10)           179.4389         estimate D2E/DX2                !
 ! D42   D(1,8,9,25)            -1.6436         estimate D2E/DX2                !
 ! D43   D(13,8,9,10)           -0.0121         estimate D2E/DX2                !
 ! D44   D(13,8,9,25)          178.9054         estimate D2E/DX2                !
 ! D45   D(1,8,13,12)         -179.2113         estimate D2E/DX2                !
 ! D46   D(1,8,13,29)           -0.2492         estimate D2E/DX2                !
 ! D47   D(9,8,13,12)            0.2483         estimate D2E/DX2                !
 ! D48   D(9,8,13,29)          179.2104         estimate D2E/DX2                !
 ! D49   D(8,9,10,11)           -0.5609         estimate D2E/DX2                !
 ! D50   D(8,9,10,26)          179.4603         estimate D2E/DX2                !
 ! D51   D(25,9,10,11)        -179.5089         estimate D2E/DX2                !
 ! D52   D(25,9,10,26)           0.5122         estimate D2E/DX2                !
 ! D53   D(9,10,11,12)           0.84           estimate D2E/DX2                !
 ! D54   D(9,10,11,27)        -179.5495         estimate D2E/DX2                !
 ! D55   D(26,10,11,12)       -179.182          estimate D2E/DX2                !
 ! D56   D(26,10,11,27)          0.4286         estimate D2E/DX2                !
 ! D57   D(10,11,12,13)         -0.606          estimate D2E/DX2                !
 ! D58   D(10,11,12,28)        179.7986         estimate D2E/DX2                !
 ! D59   D(27,11,12,13)        179.7577         estimate D2E/DX2                !
 ! D60   D(27,11,12,28)          0.1622         estimate D2E/DX2                !
 ! D61   D(10,11,27,81)         -1.8139         estimate D2E/DX2                !
 ! D62   D(12,11,27,81)        177.7826         estimate D2E/DX2                !
 ! D63   D(11,12,13,8)           0.0734         estimate D2E/DX2                !
 ! D64   D(11,12,13,29)       -178.9084         estimate D2E/DX2                !
 ! D65   D(28,12,13,8)         179.67           estimate D2E/DX2                !
 ! D66   D(28,12,13,29)          0.6882         estimate D2E/DX2                !
 ! D67   D(1,14,15,16)        -179.1401         estimate D2E/DX2                !
 ! D68   D(1,14,15,30)          -0.7945         estimate D2E/DX2                !
 ! D69   D(19,14,15,16)          0.6669         estimate D2E/DX2                !
 ! D70   D(19,14,15,30)        179.0126         estimate D2E/DX2                !
 ! D71   D(1,14,19,18)         179.0907         estimate D2E/DX2                !
 ! D72   D(1,14,19,34)          -1.4048         estimate D2E/DX2                !
 ! D73   D(15,14,19,18)         -0.7126         estimate D2E/DX2                !
 ! D74   D(15,14,19,34)        178.7918         estimate D2E/DX2                !
 ! D75   D(14,15,16,17)         -0.2274         estimate D2E/DX2                !
 ! D76   D(14,15,16,31)        179.0436         estimate D2E/DX2                !
 ! D77   D(30,15,16,17)       -178.6136         estimate D2E/DX2                !
 ! D78   D(30,15,16,31)          0.6574         estimate D2E/DX2                !
 ! D79   D(15,16,17,18)         -0.1968         estimate D2E/DX2                !
 ! D80   D(15,16,17,32)        178.4482         estimate D2E/DX2                !
 ! D81   D(31,16,17,18)       -179.4702         estimate D2E/DX2                !
 ! D82   D(31,16,17,32)         -0.8252         estimate D2E/DX2                !
 ! D83   D(16,17,18,19)          0.1514         estimate D2E/DX2                !
 ! D84   D(16,17,18,33)       -179.8725         estimate D2E/DX2                !
 ! D85   D(32,17,18,19)       -178.3884         estimate D2E/DX2                !
 ! D86   D(32,17,18,33)          1.5877         estimate D2E/DX2                !
 ! D87   D(16,17,32,80)       -175.1645         estimate D2E/DX2                !
 ! D88   D(18,17,32,80)          3.3315         estimate D2E/DX2                !
 ! D89   D(17,18,19,14)          0.3205         estimate D2E/DX2                !
 ! D90   D(17,18,19,34)       -179.1952         estimate D2E/DX2                !
 ! D91   D(33,18,19,14)       -179.6565         estimate D2E/DX2                !
 ! D92   D(33,18,19,34)          0.8278         estimate D2E/DX2                !
 ! D93   D(5,22,35,36)        -164.7241         estimate D2E/DX2                !
 ! D94   D(5,22,35,50)         -11.9712         estimate D2E/DX2                !
 ! D95   D(38,22,35,36)          1.7563         estimate D2E/DX2                !
 ! D96   D(38,22,35,50)        154.5092         estimate D2E/DX2                !
[...]
 Alpha virt. eigenvalues --    3.01870   3.01947   3.02001   3.02254   3.02831
 Alpha virt. eigenvalues --    3.03012   3.03200   3.03594   3.03625   3.03686
 Alpha virt. eigenvalues --    3.03735   3.03760   3.03851   3.04110   3.04137
 Alpha virt. eigenvalues --    3.05601   3.06764   3.06813   3.07011   3.07300
 Alpha virt. eigenvalues --    3.07359   3.07435   3.07856   3.07941   3.09897
 Alpha virt. eigenvalues --    3.10294   3.10433   3.10846   3.11012   3.11861
 Alpha virt. eigenvalues --    3.11959   3.12381   3.12827   3.13444   3.14666
 Alpha virt. eigenvalues --    3.15275   3.15715   3.15976   3.17242   3.17827
 Alpha virt. eigenvalues --    3.17964   3.18641   3.18799   3.19126   3.21414
 Alpha virt. eigenvalues --    3.21514   3.21766   3.22286   3.22979   3.23469
 Alpha virt. eigenvalues --    3.23536   3.23591   3.23666   3.23750   3.23934
 Alpha virt. eigenvalues --    3.24071   3.25596   3.27650   3.28806   3.29496
 Alpha virt. eigenvalues --    3.30948   3.31195   3.31225   3.31765   3.32290
 Alpha virt. eigenvalues --    3.32342   3.32631   3.33101   3.33856   3.34068
 Alpha virt. eigenvalues --    3.34453   3.34763   3.35618   3.35759   3.35917
 Alpha virt. eigenvalues --    3.36435   3.36802   3.37059   3.37223   3.37540
 Alpha virt. eigenvalues --    3.37944   3.38342   3.38457   3.38705   3.38923
 Alpha virt. eigenvalues --    3.39527   3.39885   3.40540   3.40984   3.41195
 Alpha virt. eigenvalues --    3.41847   3.43994   3.44234   3.44903   3.45744
 Alpha virt. eigenvalues --    3.45826   3.46285   3.47104   3.48071   3.48437
 Alpha virt. eigenvalues --    3.48471   3.48675   3.49051   3.49515   3.49703
 Alpha virt. eigenvalues --    3.50040   3.50093   3.50662   3.51115   3.52244
 Alpha virt. eigenvalues --    3.52911   3.54091   3.55388   3.55539   3.55662
 Alpha virt. eigenvalues --    3.55971   3.56077   3.56185   3.56616   3.57219
 Alpha virt. eigenvalues --    3.58402   3.59311   3.60205   3.60275   3.60965
 Alpha virt. eigenvalues --    3.61045   3.61428   3.61581   3.61660   3.62082
 Alpha virt. eigenvalues --    3.62440   3.62615   3.67355   3.68877   3.72962
 Alpha virt. eigenvalues --    3.74390   3.74410   3.74516   3.74586   3.74851
 Alpha virt. eigenvalues --    3.74899   3.75207   3.77465   3.77533   3.77899
 Alpha virt. eigenvalues --    3.78085   3.78168   3.78542   3.80417   3.86066
 Alpha virt. eigenvalues --    3.86298   3.86460   3.86671   3.86957   3.87082
 Alpha virt. eigenvalues --    3.87960   3.89410   3.89498   3.93941   3.95099
 Alpha virt. eigenvalues --    3.96274   3.96373   3.96411   3.96731   3.97123
 Alpha virt. eigenvalues --    3.97224   3.97582   3.98657   3.99671   3.99876
 Alpha virt. eigenvalues --    4.00167   4.01478   4.03117   4.03247   4.04191
 Alpha virt. eigenvalues --    4.05527   4.05574   4.05723   4.05829   4.06031
 Alpha virt. eigenvalues --    4.06174   4.06591   4.10106   4.10144   4.10343
 Alpha virt. eigenvalues --    4.10507   4.10553   4.10711   4.10908   4.10969
 Alpha virt. eigenvalues --    4.11375   4.11439   4.12180   4.12334   4.12629
 Alpha virt. eigenvalues --    4.13674   4.13967   4.14240   4.14533   4.16031
 Alpha virt. eigenvalues --    4.16509   4.16787   4.17088   4.17296   4.17432
 Alpha virt. eigenvalues --    4.17654   4.18176   4.18693   4.19334   4.19472
 Alpha virt. eigenvalues --    4.19953   4.20081   4.22800   4.31418   4.44715
 Alpha virt. eigenvalues --    4.49653   4.51448   4.53531   4.56652   4.70829
 Alpha virt. eigenvalues --    4.78795   4.84111   4.84184   4.84216   4.84250
 Alpha virt. eigenvalues --    4.84334   4.84401   4.84639   4.84690   4.84714
 Alpha virt. eigenvalues --    4.84862   4.88884   4.88932   4.89015   4.89120
 Alpha virt. eigenvalues --    4.89400   4.89421   4.90480   5.04577   5.04801
 Alpha virt. eigenvalues --    5.04845   5.05011   5.05821   5.12811   5.13888
 Alpha virt. eigenvalues --    5.15909   5.27374   5.27410   5.27513   5.27624
 Alpha virt. eigenvalues --    5.27869   5.27924   5.28577   5.39399   5.59689
 Alpha virt. eigenvalues --    5.76209   5.76259   5.76637   5.76676   5.76699
 Alpha virt. eigenvalues --    5.77103   5.77544   7.80601  17.20135  17.50280
 Alpha virt. eigenvalues --   17.54385  23.44093  23.47067  23.47721  23.48209
 Alpha virt. eigenvalues --   23.52237  23.52306  23.52710  23.54661  23.56669
 Alpha virt. eigenvalues --   23.62216  23.64570  23.71630  23.79367  23.81901
 Alpha virt. eigenvalues --   23.82389  23.85339  23.85373  23.85474  23.85545
 Alpha virt. eigenvalues --   23.85802  23.85850  23.89321  23.89448  23.89801
 Alpha virt. eigenvalues --   23.89811  23.90005  23.90072  23.90453  23.90829
 Alpha virt. eigenvalues --   23.91613  23.92295  23.92663  23.92754  23.92901
 Alpha virt. eigenvalues --   23.92942  23.93069  23.93194  23.93199  23.93334
 Alpha virt. eigenvalues --   23.93570  23.93723  23.95028  23.99534  24.00254
 Alpha virt. eigenvalues --   24.01735  24.03634  24.03644  24.03843  24.04023
 Alpha virt. eigenvalues --   24.04192  24.04202  24.04335  24.04613  24.04770
 Alpha virt. eigenvalues --   24.10767  24.10820  24.11236  24.11348  24.11438
 Alpha virt. eigenvalues --   24.11782  24.12607  24.12723  24.13105  24.13314
 Alpha virt. eigenvalues --   24.14070  24.17630  24.17695  24.17702  24.17819
 Alpha virt. eigenvalues --   24.18105  24.18256  24.18500  24.18583  24.18942
 Alpha virt. eigenvalues --   24.19181  24.45413  35.60552  35.64749  35.64893
 Alpha virt. eigenvalues --   35.65128  35.71851  35.84672  49.85494  49.91206
 Alpha virt. eigenvalues --   49.91261  49.91322  49.91423  49.91687  49.91755
 Alpha virt. eigenvalues --   50.00820 188.92616
          Condensed to atoms (all electrons):
 Mulliken charges:
               1
     1  N   -0.496488
     2  C    0.190054
     3  C   -0.118357
     4  C   -0.102811
     5  C    0.009173
     6  C   -0.022524
     7  C   -0.119493
     8  C    0.062809
     9  C   -0.060389
    10  C   -0.129656
    11  C    0.172225
    12  C   -0.087426
    13  C   -0.063432
    14  C    0.067494
    15  C   -0.060870
    16  C   -0.085720
    17  C    0.172109
    18  C   -0.130941
    19  C   -0.067980
    20  H    0.114760
    21  H    0.097642
    22  C   -0.305166
    23  H    0.122509
    24  H    0.114417
    25  H    0.107333
    26  H    0.106814
    27  O   -0.348998
    28  H    0.103879
    29  H    0.104630
    30  H    0.109068
    31  H    0.105846
    32  O   -0.348256
    33  H    0.105959
    34  H    0.104390
    35  C    0.209770
    36  C    0.228946
    37  C   -0.329534
    38  S    0.363249
    39  C    0.030217
    40  C   -0.106112
    41  C   -0.065972
    42  C   -0.083114
    43  C   -0.055896
    44  C   -0.033807
    45  C    0.052990
    46  C   -0.199156
    47  C    0.444597
    48  O   -0.344964
    49  O   -0.324369
    50  N   -0.349251
    51  N   -0.362721
    52  H    0.097721
    53  H    0.092710
    54  H    0.125335
    55  H    0.138781
    56  H    0.121789
    57  C    0.061819
    58  H    0.254781
    59  N   -0.238718
    60  C    0.141133
    61  C    0.159884
    62  C   -0.151856
    63  C   -0.035547
    64  C   -0.033841
    65  C   -0.153501
    66  C   -0.034050
    67  C   -0.107385
    68  C    0.191779
    69  C   -0.112326
    70  C   -0.108270
    71  C    0.185539
    72  C   -0.110915
    73  C   -0.035119
    74  H    0.098908
    75  H    0.119098
    76  H    0.114220
    77  H    0.112930
    78  H    0.114751
    79  H    0.097647
    80  C   -0.132515
    81  C   -0.132292
    82  H    0.130536
    83  H    0.110904
    84  H    0.110495
    85  H    0.110589
    86  H    0.110714
    87  H    0.129751
    88  N   -0.496896
    89  C   -0.057524
    90  C    0.057212
    91  C   -0.059032
    92  C   -0.085858
    93  C    0.173014
    94  C   -0.129571
    95  H    0.105204
    96  H    0.105038
    97  H    0.102737
    98  O   -0.348101
    99  H    0.105446
   100  C   -0.065653
   101  C    0.063777
   102  C   -0.057236
   103  C   -0.086144
   104  C    0.172074
   105  C   -0.131419
   106  H    0.110367
   107  H    0.102550
   108  O   -0.348594
   109  H    0.105837
   110  C   -0.132146
   111  H    0.129960
   112  H    0.108831
   113  H    0.111468
   114  N   -0.499271
   115  C   -0.063870
   116  C    0.062421
   117  C   -0.060099
   118  C   -0.130250
   119  C    0.171686
   120  C   -0.088065
   121  H    0.103503
   122  H    0.106543
   123  H    0.104184
   124  O   -0.349339
   125  H    0.105997
   126  C   -0.068214
   127  C    0.070096
   128  C   -0.061555
   129  C   -0.086040
   130  C    0.171435
   131  C   -0.130728
   132  H    0.105318
   133  H    0.107244
   134  H    0.103388
   135  O   -0.348919
   136  H    0.104818
   137  C   -0.132015
   138  C   -0.132260
   139  H    0.129777
   140  H    0.109889
   141  H    0.110432
   142  H    0.109943
   143  H    0.110765
   144  H    0.129869
   145  H    0.104999
   146  C   -0.132212
   147  H    0.129706
   148  H    0.109858
   149  H    0.110592
   150  H    0.105770
   151  H    0.106309
 Sum of Mulliken charges =   0.00000
 Mulliken charges with hydrogens summed into heavy atoms:
               1
     1  N   -0.496488
     2  C    0.190054
     3  C   -0.003598
     4  C   -0.005170
     5  C    0.009173
     6  C    0.099985
     7  C   -0.005076
     8  C    0.062809
     9  C    0.046943
    10  C   -0.022842
    11  C    0.172225
    12  C    0.016453
    13  C    0.041198
    14  C    0.067494
    15  C    0.048198
    16  C    0.020126
    17  C    0.172109
    18  C   -0.024982
    19  C    0.036410
    22  C   -0.305166
    27  O   -0.348998
    32  O   -0.348256
    35  C    0.209770
    36  C    0.228946
    37  C   -0.329534
    38  S    0.363249
    39  C    0.030217
    40  C   -0.008391
    41  C    0.026738
    42  C   -0.083114
    43  C    0.069439
    44  C    0.104974
    45  C    0.174779
    46  C   -0.199156
    47  C    0.444597
    48  O   -0.344964
    49  O   -0.069588
    50  N   -0.349251
    51  N   -0.362721
    57  C    0.061819
    59  N   -0.238718
    60  C    0.141133
    61  C    0.159884
    62  C   -0.151856
    63  C    0.070222
    64  C    0.072468
    65  C   -0.153501
    66  C    0.064858
    67  C    0.011713
    68  C    0.191779
    69  C    0.001894
    70  C    0.004660
    71  C    0.185539
    72  C    0.003836
    73  C    0.062528
    80  C    0.219420
    81  C    0.218761
    88  N   -0.496896
    89  C    0.045213
    90  C    0.057212
    91  C    0.046007
    92  C    0.019588
    93  C    0.173014
    94  C   -0.024367
    98  O   -0.348101
   100  C    0.036897
   101  C    0.063777
   102  C    0.053131
   103  C    0.019693
   104  C    0.172074
   105  C   -0.026420
   108  O   -0.348594
   110  C    0.218113
   114  N   -0.499271
   115  C    0.040315
   116  C    0.062421
   117  C    0.046443
   118  C   -0.024254
   119  C    0.171686
   120  C    0.015439
   124  O   -0.349339
   126  C    0.035174
   127  C    0.070096
   128  C    0.045689
   129  C    0.018778
   130  C    0.171435
   131  C   -0.025411
   135  O   -0.348919
   137  C    0.218083
   138  C    0.218318
   146  C    0.217945
 Electronic spatial extent (au):  <R**2>=         153776.6610
 Charge=              0.0000 electrons
 Dipole moment (field-independent basis, Debye):
    X=             -7.1589    Y=            -10.1778    Z=             -3.6722  Tot=             12.9739
 Quadrupole moment (field-independent basis, Debye-Ang):
   XX=           -454.1948   YY=           -520.2640   ZZ=           -482.0864
   XY=            -52.0766   XZ=              6.3937   YZ=              9.0030
 Traceless Quadrupole moment (field-independent basis, Debye-Ang):
   XX=             31.3203   YY=            -34.7489   ZZ=              3.4286
   XY=            -52.0766   XZ=              6.3937   YZ=              9.0030
 Octapole moment (field-independent basis, Debye-Ang**2):
  XXX=           -774.5560  YYY=           -642.3448  ZZZ=           -250.9722  XYY=           -305.0501
  XXY=           -137.3950  XXZ=            -52.8130  XZZ=             71.3942  YZZ=           -284.0718
  YYZ=             83.0686  XYZ=            -96.1343
 Hexadecapole moment (field-independent basis, Debye-Ang**3):
 XXXX=        -101848.5436 YYYY=         -73460.2336 ZZZZ=         -16334.5538 XXXY=          -6265.3481
 XXXZ=           -652.1409 YYYX=           1205.4780 YYYZ=           -626.5381 ZZZX=            376.4786
 ZZZY=            993.4702 XXYY=         -29085.0611 XXZZ=         -19188.9438 YYZZ=         -14062.8499
 XXYZ=            111.7771 YYXZ=            -60.9603 ZZXY=           -235.2100
 N-N= 1.437012584867D+04 E-N=-3.868420600361D+04  KE= 4.245679161227D+03
 1\1\GINC-N078\FOpt\RB3LYP\6-311G(d,p)\C76H60N6O8S1\R2532\14-Jul-2019\0
 \\#N B3LYP/6-311G(d,p) OPT Geom=Connectivity\\C88H68O8N6S\\0,1\N,1.714
 8657565,-1.810733087,0.4687598429\C,1.2901447382,-1.1458815054,1.63090
 46679\C,1.8528019327,0.086627009,2.010843888\C,1.423522534,0.738190202
 1,3.1533358136\C,0.4240248539,0.199402913,3.9867919278\C,-0.1358166837
 ,-1.0352232604,3.5983246554\C,0.2839314085,-1.6873958962,2.4522469057\
 C,1.6800755028,-3.2352936183,0.3881626326\C,2.225682402,-4.0268687326,
 1.3992812558\C,2.1973608663,-5.4188290892,1.3187095759\C,1.6368544849,
 -6.0402739691,0.2000657255\C,1.0983901182,-5.2506116701,-0.8239060643\
 C,1.1122289712,-3.8694188616,-0.7266294736\C,2.2285006428,-1.081771402
 9,-0.6453151898\C,1.522665377,0.0087853161,-1.1766367696\C,2.015865710
 9,0.7074743102,-2.2653011533\C,3.2198663367,0.3235522629,-2.8704857425
 \C,3.9233041093,-0.7685384179,-2.3575658632\C,3.4300449576,-1.45427340
 63,-1.2476782692\H,2.6281728484,0.5323949729,1.4014197496\H,1.87450995
 76,1.6931023738,3.3999826342\C,0.0003003231,0.8808205344,5.2005168463\
 H,-0.9186189651,-1.4682279288,4.204265847\H,-0.1725977082,-2.631217306
 3,2.1825126984\H,2.673201574,-3.5522448943,2.2643537303\H,2.6265588298
 ,-5.9994054719,2.1241131893\O,1.5658775254,-7.3893219077,0.0111182344\
 H,0.6626048929,-5.7469163746,-1.6825111855\H,0.6856729537,-3.267907041
 4,-1.5203658733\H,0.5829051575,0.3056785668,-0.7265598959\H,1.47598508
 41,1.5498820267,-2.6804200346\O,3.6104236597,1.0693584459,-3.943226871
 \H,4.8560353743,-1.0903116024,-2.8008544193\H,3.9852732301,-2.29592237
 ,-0.8512951193\C,-1.1605000181,0.7310357742,5.9748440714\C,-1.21822826
 23,1.604884956,7.1151707394\C,-0.0936466444,2.4317806397,7.2547360667\
 S,1.0063011215,2.0892655489,5.9393548644\C,0.2303506444,3.4378586303,8
 .2461573183\C,1.4965525151,4.0654371892,8.2682803136\C,1.8014344526,5.
 0255999014,9.2096734885\C,0.869099827,5.4230385011,10.1939145909\C,-0.
 3975500652,4.7976144219,10.171122569\C,-0.707368115,3.8372252839,9.228
 7626191\C,1.2913993015,6.4306032489,11.1326936256\C,0.6684534135,7.018
 8553184,12.195118916\C,1.4409223885,8.0451838153,12.9468365664\O,2.569
 3923822,8.3925916379,12.6869695171\O,0.7365367324,8.56364914,13.975996
 6248\N,-2.1503704499,-0.1674262836,5.7411841425\N,-2.3193585788,1.6176
 501291,7.9105130466\H,2.252021485,3.7897572118,7.5416660593\H,2.783617
 0523,5.4862303625,9.200070515\H,-1.1513016757,5.0688495437,10.89694127
 21\H,-1.6848247284,3.3779528929,9.2285066225\H,2.3004081642,6.80506589
 48,10.9802136967\C,-0.6521786981,6.7203031236,12.6317197587\H,1.312553
 4218,9.2152367601,14.4011272786\N,-1.7258551256,6.4733642605,12.984316
 1377\C,-3.1846102018,-0.191523168,6.5537905951\C,-3.3057563263,0.78903
 48443,7.6379530012\C,-4.1624472542,-1.2823066827,6.3215944555\C,-4.720
 7198367,-2.0267813246,7.3706529903\C,-5.8155329167,0.9174216651,7.9046
 835015\C,-4.5277478549,0.9518721295,8.4592834962\C,-4.416397845,1.2548
 26906,9.8251658891\C,-5.5336961065,1.4903075269,10.6086903364\C,-6.824
 2144474,1.4549698761,10.0478978292\C,-6.9398720853,1.168016747,8.67551
 79842\C,-5.5684079006,-3.0959875736,7.1255697251\C,-5.902234994,-3.464
 540404,5.8102541971\C,-5.338416298,-2.7254129965,4.7548002038\C,-4.483
 0085886,-1.6653161484,5.0110178036\H,-3.4304816099,1.3130884164,10.269
 8141424\H,-5.4140743027,1.7192741177,11.6596802285\H,-7.9193326305,1.1
 402508677,8.2163349078\H,-5.9812718781,-3.6518417763,7.9573473168\H,-5
 .569528414,-2.9929372792,3.7316659978\H,-4.0410838436,-1.1220064452,4.
 1847386885\C,4.8223875481,0.7265592855,-4.5992867483\C,2.104381782,-8.
 2409361583,1.0116836516\H,4.9325692667,1.4413167348,-5.4130956243\H,5.
 6826612694,0.8109841933,-3.925631196\H,4.7833061965,-0.2878817964,-5.0
 122335645\H,3.178866427,-8.073252343,1.14738354\H,1.592627618,-8.10828
 03746,1.9717027938\H,1.9421772868,-9.2571923239,0.6562315103\N,-7.9608
 963957,1.7049668199,10.8336537721\C,-7.6066017311,0.1250046825,12.6816
 544073\C,-7.9716910781,1.3922282417,12.2270404466\C,-8.3712919326,2.35
 27159864,13.1674237836\C,-8.4054505849,2.0487590546,14.5178654865\C,-8
 .0238958302,0.7791007572,14.9698176687\C,-7.618338526,-0.1832476919,14
 .0418319788\H,-7.3231909558,-1.1745862297,14.3581753358\H,-8.657093261
 ,3.3414710847,12.8291855337\H,-7.3023171975,-0.6298294468,11.966249348
 5\O,-8.0833134703,0.5852150195,16.3184919217\H,-8.7108211064,2.7863902
 417,15.2499473654\C,-10.3873967478,1.6819033567,10.4790263388\C,-9.140
 5365251,2.2657017599,10.2575815853\C,-9.0745553847,3.4323944501,9.4804
 408977\C,-10.2208752757,3.9823759552,8.9325625692\C,-11.4713236212,3.3
 939571135,9.1632207595\C,-11.5495885935,2.2411605973,9.9476338894\H,-8
 .1144434223,3.9040787063,9.3083183209\H,-10.4541188971,0.783670297,11.
 0811200938\O,-12.5380614851,4.0193331644,8.5871231988\H,-10.177572133,
 4.88314539,8.3324367321\C,-7.6945677489,-0.677841453,16.8375484723\H,-
 7.809636779,-0.6038161671,17.9176840408\H,-8.3357107292,-1.4829723211,
 16.4606274016\H,-6.6491065927,-0.9056070198,16.6004502523\N,-6.7731628
 672,-4.5404135762,5.557808701\C,-8.0960058964,-6.0909831733,6.92886032
 19\C,-6.8521039566,-5.6425445019,6.4606912972\C,-5.7016248214,-6.30744
 45618,6.8863039554\C,-5.7762490415,-7.3822425917,7.7721283885\C,-7.020
 7547516,-7.8234049982,8.2283752103\C,-8.180499888,-7.1705970214,7.7920
 43021\H,-9.1380658287,-7.5222759159,8.1565925532\H,-4.7335219899,-5.97
 75610123,6.5285577014\H,-8.9987742645,-5.5865878896,6.6057306842\O,-7.
 2122533349,-8.8662871144,9.0871005027\H,-4.8623397571,-7.8699754364,8.
 0835275717\C,-7.6760152895,-5.6843408684,3.5861108354\C,-7.6043345414,
 -4.552657487,4.3983626685\C,-8.3895298877,-3.4384548733,4.0638796747\C
 ,-9.2049025822,-3.457227505,2.9451041225\C,-9.2773861124,-4.5997685868
 ,2.1376003006\C,-8.5110939702,-5.7190925922,2.4693477377\H,-8.54370818
 83,-6.6167196744,1.8666758084\H,-8.3525468554,-2.553864977,4.688243463
 7\H,-7.0787434489,-6.5540545157,3.8324664503\O,-10.1186650627,-4.51917
 61056,1.0667077232\H,-9.8122758385,-2.5999494623,2.6811753524\C,-6.072
 8399295,-9.5638200454,9.5677822601\C,-10.2278287023,-5.6446807502,0.20
 79832173\H,-6.4554281845,-10.3360122755,10.2332285989\H,-5.5147149067,
 -10.0357824861,8.751123589\H,-5.4032048997,-8.9024502781,10.1293844964
 \H,-10.6073018785,-6.5233930697,0.7419900961\H,-9.2665898117,-5.890524
 6622,-0.2574980214\H,-10.9389410086,-5.3606160525,-0.5660085464\H,-12.
 4998385667,1.7638948973,10.1453576851\C,-13.8319301145,3.4701461227,8.
 7876821583\H,-14.5182655873,4.1208206413,8.2482216793\H,-13.9049858826
 ,2.4539679531,8.3836016629\H,-14.10435083,3.4586284791,9.8492065693\H,
 -4.4887261952,-1.7709653287,8.3969619745\H,-5.9447510847,0.7006648829,
 6.8517046428\\Version=ES64L-G09RevD.01\State=1-A\HF=-4261.5966802\RMSD
 =2.991e-09\RMSF=1.838e-06\Dipole=-0.3747197,-4.6301482,-2.1155228\Quad
 rupole=23.4032395,-19.1507089,-4.2525305,-11.2026627,-31.903959,-23.76
 79038\PG=C01 [X(C76H60N6O8S1)]\\@


 QUANTUM MECHANICS IS BOHRING -- M.S. GORDON
 Job cpu time:       4 days 12 hours 47 minutes  6.7 seconds.
 File lengths (MBytes):  RWF=   2447 Int=      0 D2E=      0 Chk=    262 Scr=      1
 Normal termination of Gaussian 09 at Sun Jul 14 23:51:53 2019.
