 Entering Gaussian System, Link 0=g16
 Input=mex.com
 Output=mex.out
 Initial command:
 /usr/local/apps/gaussian/g16-b01-avx2//g16/l1.exe "/tmp/r2532.820664.maple/Gau-14419.inp" -scrdir="/tmp/r2532.820664.maple/"
 Entering Link 1 = /usr/local/apps/gaussian/g16-b01-avx2//g16/l1.exe PID=     14420.
  
 Copyright (c) 1988-2017, Gaussian, Inc.  All Rights Reserved.
  
 This is part of the Gaussian(R) 16 program.  It is based on
 the Gaussian(R) 09 system (copyright 2009, Gaussian, Inc.),
 the Gaussian(R) 03 system (copyright 2003, Gaussian, Inc.),
 the Gaussian(R) 98 system (copyright 1998, Gaussian, Inc.),
 the Gaussian(R) 94 system (copyright 1995, Gaussian, Inc.),
 the Gaussian 92(TM) system (copyright 1992, Gaussian, Inc.),
 the Gaussian 90(TM) system (copyright 1990, Gaussian, Inc.),
 the Gaussian 88(TM) system (copyright 1988, Gaussian, Inc.),
 the Gaussian 86(TM) system (copyright 1986, Carnegie Mellon
 University), and the Gaussian 82(TM) system (copyright 1983,
 Carnegie Mellon University). Gaussian is a federally registered
 trademark of Gaussian, Inc.
  
 This software contains proprietary and confidential information,
 including trade secrets, belonging to Gaussian, Inc.
  
 This software is provided under written license and may be
 used, copied, transmitted, or stored only in accord with that
 written license.
  
 The following legend is applicable only to US Government
 contracts under FAR:
  
                    RESTRICTED RIGHTS LEGEND
  
 Use, reproduction and disclosure by the US Government is
 subject to restrictions as set forth in subparagraphs (a)
 and (c) of the Commercial Computer Software - Restricted
 Rights clause in FAR 52.227-19.
  
 Gaussian, Inc.
 340 Quinnipiac St., Bldg. 40, Wallingford CT 06492
  
  
 ---------------------------------------------------------------
 Warning -- This program may not be used in any manner that
 competes with the business of Gaussian, Inc. or will provide
 assistance to any competitor of Gaussian, Inc.  The licensee
 of this program is prohibited from giving any competitor of
 Gaussian, Inc. access to this program.  By using this program,
 the user acknowledges that Gaussian, Inc. is engaged in the
 business of creating and licensing software in the field of
 computational chemistry and represents and warrants to the
 licensee that it is not a competitor of Gaussian, Inc. and that
 it will not use this program in any manner prohibited above.
 ---------------------------------------------------------------
  

 Cite this work as:
 Gaussian 16, Revision B.01,
 M. J. Frisch, G. W. Trucks, H. B. Schlegel, G. E. Scuseria, 
 M. A. Robb, J. R. Cheeseman, G. Scalmani, V. Barone, 
 G. A. Petersson, H. Nakatsuji, X. Li, M. Caricato, A. V. Marenich, 
 J. Bloino, B. G. Janesko, R. Gomperts, B. Mennucci, H. P. Hratchian, 
 J. V. Ortiz, A. F. Izmaylov, J. L. Sonnenberg, D. Williams-Young, 
 F. Ding, F. Lipparini, F. Egidi, J. Goings, B. Peng, A. Petrone, 
 T. Henderson, D. Ranasinghe, V. G. Zakrzewski, J. Gao, N. Rega, 
 G. Zheng, W. Liang, M. Hada, M. Ehara, K. Toyota, R. Fukuda, 
 J. Hasegawa, M. Ishida, T. Nakajima, Y. Honda, O. Kitao, H. Nakai, 
 T. Vreven, K. Throssell, J. A. Montgomery, Jr., J. E. Peralta, 
 F. Ogliaro, M. J. Bearpark, J. J. Heyd, E. N. Brothers, K. N. Kudin, 
 V. N. Staroverov, T. A. Keith, R. Kobayashi, J. Normand, 
 K. Raghavachari, A. P. Rendell, J. C. Burant, S. S. Iyengar, 
 J. Tomasi, M. Cossi, J. M. Millam, M. Klene, C. Adamo, R. Cammi, 
 J. W. Ochterski, R. L. Martin, K. Morokuma, O. Farkas, 
 J. B. Foresman, and D. J. Fox, Gaussian, Inc., Wallingford CT, 2016.
 
 ******************************************
 Gaussian 16:  ES64L-G16RevB.01 20-Dec-2017
                 3-Jun-2021 
 ******************************************
 %mem=8gb
 -------------------------------------------------------
 #N B3LYP/6-311G(d,p) OPT SCRF=(Solvent=Dichloromethane)
 -------------------------------------------------------
 1/18=20,19=15,26=3,38=1/1,3;
 2/9=110,12=2,17=6,18=5,40=1/2;
 3/5=4,6=6,7=101,11=2,25=1,30=1,70=2201,71=1,72=9,74=-5/1,2,3;
 4//1;
 5/5=2,38=5,53=9/2;
 6/7=2,8=2,9=2,10=2,28=1/1;
 7//1,2,3,16;
 1/18=20,19=15,26=3/3(2);
 2/9=110/2;
 99//99;
 2/9=110/2;
 3/5=4,6=6,7=101,11=2,25=1,30=1,70=2205,71=1,72=9,74=-5/1,2,3;
 4/5=5,16=3,69=1/1;
 5/5=2,38=5,53=9/2;
 7//1,2,3,16;
 1/18=20,19=15,26=3/3(-5);
 2/9=110/2;
 6/7=2,8=2,9=2,10=2,19=2,28=1/1;
 99/9=1/99;
 ------------
 C61H46O6N4S3
 ------------
 Symbolic Z-matrix:
 Charge =  0 Multiplicity = 1
 6                    -7.54656   1.28031   2.6831 
 6                    -8.59284   0.80025   1.67846 
 6                    -7.98235   0.25077   0.55953 
 6                    -6.56003   0.31217   0.72128 
 16                   -5.13957  -0.12657  -0.15444 
 6                    -4.11068   0.4976    1.15417 
 6                    -4.88606   1.00911   2.18405 
 6                    -6.26721   0.90307   1.93847 
 1                    -4.43472   1.43657   3.06607 
 6                    -2.66474   0.42197   1.03683 
 6                    -2.033    -0.18067  -0.03872 
 6                    -0.63086  -0.25993  -0.18826 
 6                     0.27148   0.24855   0.72708 
 6                    -0.32531   0.88604   1.87025 
 7                     0.34172   1.43228   2.88941 
 16                   -0.76461   2.00935   3.9457 
 7                    -2.13753   1.5848    3.1562 
 6                    -1.7736    0.97165   2.02909 
 6                     1.72791   0.12979   0.53474 
 6                     2.6277    1.12709   0.94941 
 6                     3.98947   1.01524   0.71634 
 6                     4.52046  -0.10516   0.05667 
 6                     3.63088  -1.11158  -0.35387 
 6                     2.27135  -0.99257  -0.11446 
 1                     1.61859  -1.79985  -0.426 
 1                     4.01251  -1.99078  -0.85704 
 7                     5.90597  -0.21808  -0.18318 
 6                     6.54171  -1.49099  -0.1626 
 6                     7.45228  -1.84959  -1.16461 
 6                     8.08     -3.08788  -1.14278 
 6                     7.81446  -4.02236  -0.12908 
 6                     6.90281  -3.64961   0.87124 
 6                     6.28186  -2.40695   0.86377 
 1                     5.59547  -2.13832   1.65775 
 1                     6.69846  -4.33368   1.68738 
 6                     8.43148  -5.37235  -0.12359 
 6                     7.65544  -6.505     0.18419 
 6                     8.17534  -7.78766   0.17935 
 6                     9.52092  -7.9917   -0.14652 
 6                     10.32216  -6.89079  -0.44919 
 6                     9.78101  -5.60366  -0.43655 
 8                     10.63086  -4.56749  -0.77251 
 6                     11.17461  -3.85486   0.34196 
 1                     11.76885  -4.52187   0.97704 
 1                     11.81864  -3.07957  -0.07252 
 1                     10.38578  -3.39024   0.94155 
 1                     11.36699  -6.98996  -0.7089 
 8                     9.95073  -9.28402  -0.14462 
 6                     11.3039  -9.54734  -0.48928 
 1                     11.41934  -10.62851  -0.43474 
 1                     11.53197  -9.20921  -1.50608 
 1                     11.99721  -9.07373   0.21479 
 1                     7.55721  -8.6482    0.40295 
 1                     6.603    -6.36838   0.40502 
 1                     8.7765   -3.34401  -1.92978 
 1                     7.6608   -1.15274  -1.96744 
 6                     6.68419   0.93876  -0.47747 
 6                     7.92403   1.13789   0.14191 
 6                     8.69214   2.25591  -0.15308 
 6                     8.25176   3.22435  -1.06829 
 6                     7.00285   3.01772  -1.67325 
 6                     6.23404   1.8943   -1.39461 
 1                     5.27614   1.75911  -1.88237 
 1                     6.62294   3.75359  -2.37299 
 6                     9.07436   4.40407  -1.43832 
 6                     9.74153   5.20481  -0.48801 
 6                     10.49042   6.32069  -0.87975 
 6                     10.58911   6.65654  -2.23319 
 6                     9.93879   5.87832  -3.19152 
 6                     9.20075   4.77855  -2.78304 
 1                     8.71441   4.16688  -3.53423 
 1                     10.03233   6.14434  -4.2365 
 8                     11.29944   7.72032  -2.7049 
 6                     11.98548   8.55072  -1.78071 
 1                     12.74533   7.9914   -1.22289 
 1                     12.4738   9.31926  -2.37762 
 1                     11.29419   9.02763  -1.07644 
 1                     10.98609   6.92239  -0.13449 
 8                     9.60272   4.84075   0.8206 
 6                     10.18347   5.64735   1.83329 
 1                     11.27563   5.6807    1.74829 
 1                     9.78476   6.66773   1.81342 
 1                     9.91281   5.17601   2.77681 
 1                     9.6461    2.38607   0.33983 
 1                     8.28588   0.40521   0.8534 
 1                     4.65463   1.80255   1.04771 
 1                     2.25591   1.99886   1.46887 
 1                    -0.2525   -0.72702  -1.0894 
 1                    -2.636    -0.61438  -0.82843 
 16                   -9.12379  -0.30554  -0.60542 
 6                    -10.46958   0.21283   0.42408 
 6                    -9.994     0.77727   1.5999 
 1                    -10.6534   1.17449   2.35995 
 6                    -11.84609   0.0265    0.00297 
 6                    -12.91105   0.18829   0.91453 
 6                    -14.2207   0.01977   0.51357 
 6                    -14.55361  -0.32748  -0.81418 
 6                    -13.48823  -0.49537  -1.72485 
 6                    -12.17879  -0.32003  -1.32517 
 1                    -11.39185  -0.44104  -2.06047 
 1                    -13.68379  -0.75868  -2.7551 
 6                    -15.95197  -0.48436  -1.12877 
 6                    -16.59811  -0.8011   -2.28498 
 6                    -15.96947  -1.06519  -3.53045 
 7                    -15.5442  -1.29491  -4.58391 
 6                    -18.10357  -0.87839  -2.24275 
 8                    -18.73802  -0.67251  -1.24304 
 8                    -18.72331  -1.19529  -3.39914 
 1                    -18.08775  -1.33222  -4.11588 
 1                    -16.63723  -0.32316  -0.30036 
 1                    -15.01849   0.14807   1.23717 
 1                    -12.7047   0.43079   1.94917 
 6                    -7.63727   2.80425   2.9116 
 1                    -7.55861   3.34721   1.96768 
 1                    -8.58932   3.06642   3.38145 
 1                    -6.83151   3.14023   3.56951 
 6                    -7.66091   0.52423   4.0242 
 1                    -7.60261  -0.55531   3.87171 
 1                    -6.85302   0.81979   4.69878 
 1                    -8.61149   0.75222   4.51444 
 

 GradGradGradGradGradGradGradGradGradGradGradGradGradGradGradGradGradGrad
 Berny optimization.
 Initialization pass.
                           ----------------------------
                           !    Initial Parameters    !
                           ! (Angstroms and Degrees)  !
 --------------------------                            --------------------------
 ! Name  Definition              Value          Derivative Info.                !
 --------------------------------------------------------------------------------
 ! R1    R(1,2)                  1.5279         estimate D2E/DX2                !
 ! R2    R(1,8)                  1.5276         estimate D2E/DX2                !
 ! R3    R(1,113)                1.5436         estimate D2E/DX2                !
 ! R4    R(1,117)                1.5438         estimate D2E/DX2                !
 ! R5    R(2,3)                  1.388          estimate D2E/DX2                !
 ! R6    R(2,92)                 1.4036         estimate D2E/DX2                !
 ! R7    R(3,4)                  1.4328         estimate D2E/DX2                !
 ! R8    R(3,90)                 1.7232         estimate D2E/DX2                !
 ! R9    R(4,5)                  1.7254         estimate D2E/DX2                !
 ! R10   R(4,8)                  1.3844         estimate D2E/DX2                !
 ! R11   R(5,6)                  1.7778         estimate D2E/DX2                !
 ! R12   R(6,7)                  1.3869         estimate D2E/DX2                !
 ! R13   R(6,10)                 1.4527         estimate D2E/DX2                !
 ! R14   R(7,8)                  1.4068         estimate D2E/DX2                !
 ! R15   R(7,9)                  1.0791         estimate D2E/DX2                !
 ! R16   R(10,11)                1.3853         estimate D2E/DX2                !
 ! R17   R(10,18)                1.4425         estimate D2E/DX2                !
 ! R18   R(11,12)                1.4123         estimate D2E/DX2                !
 ! R19   R(11,89)                1.0841         estimate D2E/DX2                !
 ! R20   R(12,13)                1.3823         estimate D2E/DX2                !
 ! R21   R(12,88)                1.0832         estimate D2E/DX2                !
 ! R22   R(13,14)                1.4385         estimate D2E/DX2                !
 ! R23   R(13,19)                1.4739         estimate D2E/DX2                !
 ! R24   R(14,15)                1.3349         estimate D2E/DX2                !
 ! R25   R(14,18)                1.4595         estimate D2E/DX2                !
 ! R26   R(15,16)                1.6348         estimate D2E/DX2                !
 ! R27   R(16,17)                1.6397         estimate D2E/DX2                !
 ! R28   R(17,18)                1.3337         estimate D2E/DX2                !
 ! R29   R(19,20)                1.4058         estimate D2E/DX2                !
 ! R30   R(19,24)                1.4059         estimate D2E/DX2                !
 ! R31   R(20,21)                1.3861         estimate D2E/DX2                !
 ! R32   R(20,87)                1.0808         estimate D2E/DX2                !
 ! R33   R(21,22)                1.4044         estimate D2E/DX2                !
 ! R34   R(21,86)                1.0826         estimate D2E/DX2                !
 ! R35   R(22,23)                1.4046         estimate D2E/DX2                !
 ! R36   R(22,27)                1.4106         estimate D2E/DX2                !
 ! R37   R(23,24)                1.3856         estimate D2E/DX2                !
 ! R38   R(23,26)                1.0825         estimate D2E/DX2                !
 ! R39   R(24,25)                1.0839         estimate D2E/DX2                !
 ! R40   R(27,28)                1.423          estimate D2E/DX2                !
 ! R41   R(27,57)                1.425          estimate D2E/DX2                !
 ! R42   R(28,29)                1.4006         estimate D2E/DX2                !
 ! R43   R(28,33)                1.4            estimate D2E/DX2                !
 ! R44   R(29,30)                1.3885         estimate D2E/DX2                !
 ! R45   R(29,56)                1.0833         estimate D2E/DX2                !
 ! R46   R(30,31)                1.404          estimate D2E/DX2                !
 ! R47   R(30,55)                1.0817         estimate D2E/DX2                !
 ! R48   R(31,32)                1.4038         estimate D2E/DX2                !
 ! R49   R(31,36)                1.4843         estimate D2E/DX2                !
 ! R50   R(32,33)                1.3892         estimate D2E/DX2                !
 ! R51   R(32,35)                1.0843         estimate D2E/DX2                !
 ! R52   R(33,34)                1.0834         estimate D2E/DX2                !
 ! R53   R(36,37)                1.4071         estimate D2E/DX2                !
 ! R54   R(36,41)                1.4045         estimate D2E/DX2                !
 ! R55   R(37,38)                1.384          estimate D2E/DX2                !
 ! R56   R(37,54)                1.084          estimate D2E/DX2                !
 ! R57   R(38,39)                1.3994         estimate D2E/DX2                !
 ! R58   R(38,53)                1.0829         estimate D2E/DX2                !
 ! R59   R(39,40)                1.3948         estimate D2E/DX2                !
 ! R60   R(39,48)                1.3619         estimate D2E/DX2                !
 ! R61   R(40,41)                1.3963         estimate D2E/DX2                !
 ! R62   R(40,47)                1.0812         estimate D2E/DX2                !
 ! R63   R(41,42)                1.3816         estimate D2E/DX2                !
 ! R64   R(42,43)                1.4302         estimate D2E/DX2                !
 ! R65   R(43,44)                1.0961         estimate D2E/DX2                !
 ! R66   R(43,45)                1.0898         estimate D2E/DX2                !
 ! R67   R(43,46)                1.0944         estimate D2E/DX2                !
 ! R68   R(48,49)                1.421          estimate D2E/DX2                !
 ! R69   R(49,50)                1.0887         estimate D2E/DX2                !
 ! R70   R(49,51)                1.0955         estimate D2E/DX2                !
 ! R71   R(49,52)                1.0958         estimate D2E/DX2                !
 ! R72   R(57,58)                1.4002         estimate D2E/DX2                !
 ! R73   R(57,62)                1.3989         estimate D2E/DX2                !
 ! R74   R(58,59)                1.3882         estimate D2E/DX2                !
 ! R75   R(58,85)                1.0835         estimate D2E/DX2                !
 ! R76   R(59,60)                1.4034         estimate D2E/DX2                !
 ! R77   R(59,84)                1.0816         estimate D2E/DX2                !
 ! R78   R(60,61)                1.403          estimate D2E/DX2                !
 ! R79   R(60,65)                1.485          estimate D2E/DX2                !
 ! R80   R(61,62)                1.3895         estimate D2E/DX2                !
 ! R81   R(61,64)                1.0842         estimate D2E/DX2                !
 ! R82   R(62,63)                1.0834         estimate D2E/DX2                !
 ! R83   R(65,66)                1.4105         estimate D2E/DX2                !
 ! R84   R(65,70)                1.4016         estimate D2E/DX2                !
 ! R85   R(66,67)                1.3998         estimate D2E/DX2                !
 ! R86   R(66,79)                1.3654         estimate D2E/DX2                !
 ! R87   R(67,68)                1.398          estimate D2E/DX2                !
 ! R88   R(67,78)                1.0785         estimate D2E/DX2                !
 ! R89   R(68,69)                1.3953         estimate D2E/DX2                !
 ! R90   R(68,73)                1.3633         estimate D2E/DX2                !
 ! R91   R(69,70)                1.386          estimate D2E/DX2                !
 ! R92   R(69,72)                1.0824         estimate D2E/DX2                !
 ! R93   R(70,71)                1.084          estimate D2E/DX2                !
 ! R94   R(73,74)                1.4193         estimate D2E/DX2                !
 ! R95   R(74,75)                1.0961         estimate D2E/DX2                !
 ! R96   R(74,76)                1.0888         estimate D2E/DX2                !
 ! R97   R(74,77)                1.096          estimate D2E/DX2                !
 ! R98   R(79,80)                1.419          estimate D2E/DX2                !
 ! R99   R(80,81)                1.096          estimate D2E/DX2                !
 ! R100  R(80,82)                1.0957         estimate D2E/DX2                !
 ! R101  R(80,83)                1.0889         estimate D2E/DX2                !
 ! R102  R(90,91)                1.7719         estimate D2E/DX2                !
 ! R103  R(91,92)                1.3883         estimate D2E/DX2                !
 ! R104  R(91,94)                1.4515         estimate D2E/DX2                !
 ! R105  R(92,93)                1.0818         estimate D2E/DX2                !
 ! R106  R(94,95)                1.4111         estimate D2E/DX2                !
 ! R107  R(94,99)                1.4123         estimate D2E/DX2                !
 ! R108  R(95,96)                1.38           estimate D2E/DX2                !
 ! R109  R(95,112)               1.0825         estimate D2E/DX2                !
 ! R110  R(96,97)                1.4122         estimate D2E/DX2                !
 ! R111  R(96,111)               1.0847         estimate D2E/DX2                !
 ! R112  R(97,98)                1.4116         estimate D2E/DX2                !
 ! R113  R(97,102)               1.4419         estimate D2E/DX2                !
 ! R114  R(98,99)                1.3803         estimate D2E/DX2                !
 ! R115  R(98,101)               1.0812         estimate D2E/DX2                !
 ! R116  R(99,100)               1.0838         estimate D2E/DX2                !
 ! R117  R(102,103)              1.3619         estimate D2E/DX2                !
 ! R118  R(102,110)              1.0871         estimate D2E/DX2                !
 ! R119  R(103,104)              1.4199         estimate D2E/DX2                !
 ! R120  R(103,106)              1.508          estimate D2E/DX2                !
 ! R121  R(104,105)              1.1591         estimate D2E/DX2                !
 ! R122  R(106,107)              1.2018         estimate D2E/DX2                !
 ! R123  R(106,108)              1.3497         estimate D2E/DX2                !
 ! R124  R(108,109)              0.9677         estimate D2E/DX2                !
 ! R125  R(113,114)              1.0918         estimate D2E/DX2                !
 ! R126  R(113,115)              1.0936         estimate D2E/DX2                !
 ! R127  R(113,116)              1.0931         estimate D2E/DX2                !
 ! R128  R(117,118)              1.0918         estimate D2E/DX2                !
 ! R129  R(117,119)              1.0932         estimate D2E/DX2                !
 ! R130  R(117,120)              1.0936         estimate D2E/DX2                !
 ! A1    A(2,1,8)              100.102          estimate D2E/DX2                !
 ! A2    A(2,1,113)            111.548          estimate D2E/DX2                !
 ! A3    A(2,1,117)            111.5061         estimate D2E/DX2                !
 ! A4    A(8,1,113)            111.4182         estimate D2E/DX2                !
 ! A5    A(8,1,117)            111.3793         estimate D2E/DX2                !
 ! A6    A(113,1,117)          110.5214         estimate D2E/DX2                !
 ! A7    A(1,2,3)              110.6861         estimate D2E/DX2                !
 ! A8    A(1,2,92)             136.5162         estimate D2E/DX2                !
 ! A9    A(3,2,92)             112.7975         estimate D2E/DX2                !
 ! A10   A(2,3,4)              109.1863         estimate D2E/DX2                !
 ! A11   A(2,3,90)             112.4223         estimate D2E/DX2                !
 ! A12   A(4,3,90)             138.391          estimate D2E/DX2                !
 ! A13   A(3,4,5)              138.5072         estimate D2E/DX2                !
 ! A14   A(3,4,8)              109.118          estimate D2E/DX2                !
 ! A15   A(5,4,8)              112.3743         estimate D2E/DX2                !
 ! A16   A(4,5,6)               90.7786         estimate D2E/DX2                !
 ! A17   A(5,6,7)              110.6412         estimate D2E/DX2                !
 ! A18   A(5,6,10)             119.8895         estimate D2E/DX2                !
 ! A19   A(7,6,10)             129.4693         estimate D2E/DX2                !
 ! A20   A(6,7,8)              113.0448         estimate D2E/DX2                !
 ! A21   A(6,7,9)              121.2806         estimate D2E/DX2                !
 ! A22   A(8,7,9)              125.6747         estimate D2E/DX2                !
 ! A23   A(1,8,4)              110.9072         estimate D2E/DX2                !
 ! A24   A(1,8,7)              135.932          estimate D2E/DX2                !
 ! A25   A(4,8,7)              113.1608         estimate D2E/DX2                !
 ! A26   A(6,10,11)            122.6341         estimate D2E/DX2                !
 ! A27   A(6,10,18)            122.6506         estimate D2E/DX2                !
 ! A28   A(11,10,18)           114.7151         estimate D2E/DX2                !
 ! A29   A(10,11,12)           124.0115         estimate D2E/DX2                !
 ! A30   A(10,11,89)           119.0739         estimate D2E/DX2                !
 ! A31   A(12,11,89)           116.9115         estimate D2E/DX2                !
 ! A32   A(11,12,13)           123.8718         estimate D2E/DX2                !
 ! A33   A(11,12,88)           117.3263         estimate D2E/DX2                !
 ! A34   A(13,12,88)           118.7835         estimate D2E/DX2                !
 ! A35   A(12,13,14)           114.7366         estimate D2E/DX2                !
 ! A36   A(12,13,19)           121.9392         estimate D2E/DX2                !
 ! A37   A(14,13,19)           123.3231         estimate D2E/DX2                !
 ! A38   A(13,14,15)           125.5036         estimate D2E/DX2                !
 ! A39   A(13,14,18)           121.6112         estimate D2E/DX2                !
 ! A40   A(15,14,18)           112.8767         estimate D2E/DX2                !
 ! A41   A(14,15,16)           107.4324         estimate D2E/DX2                !
 ! A42   A(15,16,17)            99.4471         estimate D2E/DX2                !
 ! A43   A(16,17,18)           107.3055         estimate D2E/DX2                !
 ! A44   A(10,18,14)           121.0521         estimate D2E/DX2                !
 ! A45   A(10,18,17)           126.0095         estimate D2E/DX2                !
 ! A46   A(14,18,17)           112.9372         estimate D2E/DX2                !
 ! A47   A(13,19,20)           122.4691         estimate D2E/DX2                !
 ! A48   A(13,19,24)           120.4354         estimate D2E/DX2                !
 ! A49   A(20,19,24)           117.0749         estimate D2E/DX2                !
 ! A50   A(19,20,21)           121.4664         estimate D2E/DX2                !
 ! A51   A(19,20,87)           119.5929         estimate D2E/DX2                !
 ! A52   A(21,20,87)           118.9389         estimate D2E/DX2                !
 ! A53   A(20,21,22)           120.9843         estimate D2E/DX2                !
 ! A54   A(20,21,86)           119.5682         estimate D2E/DX2                !
 ! A55   A(22,21,86)           119.4475         estimate D2E/DX2                !
 ! A56   A(21,22,23)           117.9993         estimate D2E/DX2                !
 ! A57   A(21,22,27)           121.0019         estimate D2E/DX2                !
 ! A58   A(23,22,27)           120.9985         estimate D2E/DX2                !
 ! A59   A(22,23,24)           120.6239         estimate D2E/DX2                !
 ! A60   A(22,23,26)           119.6394         estimate D2E/DX2                !
 ! A61   A(24,23,26)           119.7359         estimate D2E/DX2                !
 ! A62   A(19,24,23)           121.8468         estimate D2E/DX2                !
 ! A63   A(19,24,25)           119.6382         estimate D2E/DX2                !
 ! A64   A(23,24,25)           118.5077         estimate D2E/DX2                !
 ! A65   A(22,27,28)           120.5275         estimate D2E/DX2                !
 ! A66   A(22,27,57)           120.4335         estimate D2E/DX2                !
 ! A67   A(28,27,57)           119.0259         estimate D2E/DX2                !
 ! A68   A(27,28,29)           120.6061         estimate D2E/DX2                !
 ! A69   A(27,28,33)           120.86           estimate D2E/DX2                !
 ! A70   A(29,28,33)           118.5313         estimate D2E/DX2                !
 ! A71   A(28,29,30)           120.7307         estimate D2E/DX2                !
 ! A72   A(28,29,56)           119.3807         estimate D2E/DX2                !
 ! A73   A(30,29,56)           119.8872         estimate D2E/DX2                !
 ! A74   A(29,30,31)           121.2933         estimate D2E/DX2                !
 ! A75   A(29,30,55)           119.3953         estimate D2E/DX2                !
 ! A76   A(31,30,55)           119.3054         estimate D2E/DX2                !
 ! A77   A(30,31,32)           117.4229         estimate D2E/DX2                !
 ! A78   A(30,31,36)           121.9637         estimate D2E/DX2                !
 ! A79   A(32,31,36)           120.5851         estimate D2E/DX2                !
 ! A80   A(31,32,33)           121.5991         estimate D2E/DX2                !
 ! A81   A(31,32,35)           119.4191         estimate D2E/DX2                !
 ! A82   A(33,32,35)           118.9556         estimate D2E/DX2                !
 ! A83   A(28,33,32)           120.4132         estimate D2E/DX2                !
 ! A84   A(28,33,34)           119.5157         estimate D2E/DX2                !
 ! A85   A(32,33,34)           120.0703         estimate D2E/DX2                !
 ! A86   A(31,36,37)           120.2425         estimate D2E/DX2                !
 ! A87   A(31,36,41)           123.2556         estimate D2E/DX2                !
 ! A88   A(37,36,41)           116.4941         estimate D2E/DX2                !
 ! A89   A(36,37,38)           122.5523         estimate D2E/DX2                !
 ! A90   A(36,37,54)           118.5925         estimate D2E/DX2                !
 ! A91   A(38,37,54)           118.8303         estimate D2E/DX2                !
 ! A92   A(37,38,39)           119.8097         estimate D2E/DX2                !
 ! A93   A(37,38,53)           121.422          estimate D2E/DX2                !
 ! A94   A(39,38,53)           118.7556         estimate D2E/DX2                !
 ! A95   A(38,39,40)           119.1949         estimate D2E/DX2                !
 ! A96   A(38,39,48)           116.1977         estimate D2E/DX2                !
 ! A97   A(40,39,48)           124.6072         estimate D2E/DX2                !
 ! A98   A(39,40,41)           120.1958         estimate D2E/DX2                !
 ! A99   A(39,40,47)           122.3341         estimate D2E/DX2                !
 ! A100  A(41,40,47)           117.4674         estimate D2E/DX2                !
 ! A101  A(36,41,40)           121.7497         estimate D2E/DX2                !
 ! A102  A(36,41,42)           121.4474         estimate D2E/DX2                !
 ! A103  A(40,41,42)           116.7913         estimate D2E/DX2                !
 ! A104  A(41,42,43)           114.713          estimate D2E/DX2                !
 ! A105  A(42,43,44)           110.7561         estimate D2E/DX2                !
 ! A106  A(42,43,45)           106.4268         estimate D2E/DX2                !
 ! A107  A(42,43,46)           111.3729         estimate D2E/DX2                !
 ! A108  A(44,43,45)           109.4449         estimate D2E/DX2                !
 ! A109  A(44,43,46)           109.372          estimate D2E/DX2                !
 ! A110  A(45,43,46)           109.4097         estimate D2E/DX2                !
 ! A111  A(39,48,49)           118.4264         estimate D2E/DX2                !
 ! A112  A(48,49,50)           105.8343         estimate D2E/DX2                !
 ! A113  A(48,49,51)           111.4791         estimate D2E/DX2                !
 ! A114  A(48,49,52)           111.5045         estimate D2E/DX2                !
 ! A115  A(50,49,51)           109.3258         estimate D2E/DX2                !
 ! A116  A(50,49,52)           109.2662         estimate D2E/DX2                !
 ! A117  A(51,49,52)           109.3435         estimate D2E/DX2                !
 ! A118  A(27,57,58)           120.5104         estimate D2E/DX2                !
 ! A119  A(27,57,62)           120.9442         estimate D2E/DX2                !
 ! A120  A(58,57,62)           118.544          estimate D2E/DX2                !
 ! A121  A(57,58,59)           120.6969         estimate D2E/DX2                !
 ! A122  A(57,58,85)           119.3428         estimate D2E/DX2                !
 ! A123  A(59,58,85)           119.9591         estimate D2E/DX2                !
 ! A124  A(58,59,60)           121.3826         estimate D2E/DX2                !
 ! A125  A(58,59,84)           119.2147         estimate D2E/DX2                !
 ! A126  A(60,59,84)           119.4007         estimate D2E/DX2                !
 ! A127  A(59,60,61)           117.3168         estimate D2E/DX2                !
 ! A128  A(59,60,65)           122.4721         estimate D2E/DX2                !
 ! A129  A(61,60,65)           120.1741         estimate D2E/DX2                !
 ! A130  A(60,61,62)           121.676          estimate D2E/DX2                !
 ! A131  A(60,61,64)           119.3575         estimate D2E/DX2                !
 ! A132  A(62,61,64)           118.9659         estimate D2E/DX2                !
 ! A133  A(57,62,61)           120.3769         estimate D2E/DX2                !
 ! A134  A(57,62,63)           119.6339         estimate D2E/DX2                !
 ! A135  A(61,62,63)           119.987          estimate D2E/DX2                !
 ! A136  A(60,65,66)           123.0334         estimate D2E/DX2                !
 ! A137  A(60,65,70)           120.0841         estimate D2E/DX2                !
 ! A138  A(66,65,70)           116.8768         estimate D2E/DX2                !
 ! A139  A(65,66,67)           121.1359         estimate D2E/DX2                !
 ! A140  A(65,66,79)           116.5051         estimate D2E/DX2                !
 ! A141  A(67,66,79)           122.3549         estimate D2E/DX2                !
 ! A142  A(66,67,68)           120.0142         estimate D2E/DX2                !
 ! A143  A(66,67,78)           119.8175         estimate D2E/DX2                !
 ! A144  A(68,67,78)           120.1676         estimate D2E/DX2                !
 ! A145  A(67,68,69)           119.8706         estimate D2E/DX2                !
 ! A146  A(67,68,73)           124.0013         estimate D2E/DX2                !
 ! A147  A(69,68,73)           116.1279         estimate D2E/DX2                !
 ! A148  A(68,69,70)           119.229          estimate D2E/DX2                !
 ! A149  A(68,69,72)           119.0607         estimate D2E/DX2                !
 ! A150  A(70,69,72)           121.7075         estimate D2E/DX2                !
 ! A151  A(65,70,69)           122.8734         estimate D2E/DX2                !
 ! A152  A(65,70,71)           118.272          estimate D2E/DX2                !
 ! A153  A(69,70,71)           118.8433         estimate D2E/DX2                !
 ! A154  A(68,73,74)           118.8857         estimate D2E/DX2                !
 ! A155  A(73,74,75)           111.5883         estimate D2E/DX2                !
 ! A156  A(73,74,76)           105.8306         estimate D2E/DX2                !
 ! A157  A(73,74,77)           111.6003         estimate D2E/DX2                !
 ! A158  A(75,74,76)           109.1649         estimate D2E/DX2                !
 ! A159  A(75,74,77)           109.4066         estimate D2E/DX2                !
 ! A160  A(76,74,77)           109.1481         estimate D2E/DX2                !
 ! A161  A(66,79,80)           119.3953         estimate D2E/DX2                !
 ! A162  A(79,80,81)           111.7042         estimate D2E/DX2                !
 ! A163  A(79,80,82)           111.5615         estimate D2E/DX2                !
 ! A164  A(79,80,83)           105.701          estimate D2E/DX2                !
 ! A165  A(81,80,82)           109.4439         estimate D2E/DX2                !
 ! A166  A(81,80,83)           109.1523         estimate D2E/DX2                !
 ! A167  A(82,80,83)           109.1697         estimate D2E/DX2                !
 ! A168  A(3,90,91)             90.9093         estimate D2E/DX2                !
 ! A169  A(90,91,92)           110.5397         estimate D2E/DX2                !
 ! A170  A(90,91,94)           120.941          estimate D2E/DX2                !
 ! A171  A(92,91,94)           128.5193         estimate D2E/DX2                !
 ! A172  A(2,92,91)            113.3309         estimate D2E/DX2                !
 ! A173  A(2,92,93)            124.2752         estimate D2E/DX2                !
 ! A174  A(91,92,93)           122.3814         estimate D2E/DX2                !
 ! A175  A(91,94,95)           120.9022         estimate D2E/DX2                !
 ! A176  A(91,94,99)           121.8515         estimate D2E/DX2                !
 ! A177  A(95,94,99)           117.2463         estimate D2E/DX2                !
 ! A178  A(94,95,96)           120.9663         estimate D2E/DX2                !
 ! A179  A(94,95,112)          119.9493         estimate D2E/DX2                !
 ! A180  A(96,95,112)          119.0753         estimate D2E/DX2                !
 ! A181  A(95,96,97)           121.7981         estimate D2E/DX2                !
 ! A182  A(95,96,111)          119.3241         estimate D2E/DX2                !
 ! A183  A(97,96,111)          118.8756         estimate D2E/DX2                !
 ! A184  A(96,97,98)           117.2506         estimate D2E/DX2                !
 ! A185  A(96,97,102)          117.4201         estimate D2E/DX2                !
 ! A186  A(98,97,102)          125.3291         estimate D2E/DX2                !
 ! A187  A(97,98,99)           120.9371         estimate D2E/DX2                !
 ! A188  A(97,98,101)          120.4769         estimate D2E/DX2                !
 ! A189  A(99,98,101)          118.5847         estimate D2E/DX2                !
 ! A190  A(94,99,98)           121.8            estimate D2E/DX2                !
 ! A191  A(94,99,100)          119.6272         estimate D2E/DX2                !
 ! A192  A(98,99,100)          118.568          estimate D2E/DX2                !
 ! A193  A(97,102,103)         132.12           estimate D2E/DX2                !
 ! A194  A(97,102,110)         115.3998         estimate D2E/DX2                !
 ! A195  A(103,102,110)        112.4802         estimate D2E/DX2                !
 ! A196  A(102,103,104)        125.3026         estimate D2E/DX2                !
 ! A197  A(102,103,106)        117.5031         estimate D2E/DX2                !
 ! A198  A(104,103,106)        117.1942         estimate D2E/DX2                !
 ! A199  A(103,106,107)        122.7874         estimate D2E/DX2                !
 ! A200  A(103,106,108)        116.514          estimate D2E/DX2                !
 ! A201  A(107,106,108)        120.6986         estimate D2E/DX2                !
 ! A202  A(106,108,109)        111.4844         estimate D2E/DX2                !
 ! A203  A(1,113,114)          111.0233         estimate D2E/DX2                !
 ! A204  A(1,113,115)          110.5755         estimate D2E/DX2                !
 ! A205  A(1,113,116)          110.4391         estimate D2E/DX2                !
 ! A206  A(114,113,115)        108.3585         estimate D2E/DX2                !
 ! A207  A(114,113,116)        108.3235         estimate D2E/DX2                !
 ! A208  A(115,113,116)        108.0255         estimate D2E/DX2                !
 ! A209  A(1,117,118)          111.037          estimate D2E/DX2                !
 ! A210  A(1,117,119)          110.42           estimate D2E/DX2                !
 ! A211  A(1,117,120)          110.592          estimate D2E/DX2                !
 ! A212  A(118,117,119)        108.3033         estimate D2E/DX2                !
 ! A213  A(118,117,120)        108.3706         estimate D2E/DX2                !
 ! A214  A(119,117,120)        108.0218         estimate D2E/DX2                !
 ! A215  L(103,104,105,1,-1)   184.7603         estimate D2E/DX2                !
 ! A216  L(103,104,105,1,-2)   180.1557         estimate D2E/DX2                !
 ! D1    D(8,1,2,3)             -0.1469         estimate D2E/DX2                !
 ! D2    D(8,1,2,92)          -179.9574         estimate D2E/DX2                !
 ! D3    D(113,1,2,3)          117.8321         estimate D2E/DX2                !
 ! D4    D(113,1,2,92)         -61.9785         estimate D2E/DX2                !
 ! D5    D(117,1,2,3)         -118.0639         estimate D2E/DX2                !
 ! D6    D(117,1,2,92)          62.1256         estimate D2E/DX2                !
 ! D7    D(2,1,8,4)              0.0355         estimate D2E/DX2                !
 ! D8    D(2,1,8,7)            179.9771         estimate D2E/DX2                !
 ! D9    D(113,1,8,4)         -118.0395         estimate D2E/DX2                !
 ! D10   D(113,1,8,7)           61.9022         estimate D2E/DX2                !
 ! D11   D(117,1,8,4)          118.0463         estimate D2E/DX2                !
 ! D12   D(117,1,8,7)          -62.0121         estimate D2E/DX2                !
 ! D13   D(2,1,113,114)        -55.2673         estimate D2E/DX2                !
 ! D14   D(2,1,113,115)         65.0431         estimate D2E/DX2                !
 ! D15   D(2,1,113,116)       -175.4435         estimate D2E/DX2                !
 ! D16   D(8,1,113,114)         55.6774         estimate D2E/DX2                !
 ! D17   D(8,1,113,115)        175.9878         estimate D2E/DX2                !
 ! D18   D(8,1,113,116)        -64.4988         estimate D2E/DX2                !
 ! D19   D(117,1,113,114)     -179.9243         estimate D2E/DX2                !
 ! D20   D(117,1,113,115)      -59.6138         estimate D2E/DX2                !
 ! D21   D(117,1,113,116)       59.8996         estimate D2E/DX2                !
 ! D22   D(2,1,117,118)         55.044          estimate D2E/DX2                !
 ! D23   D(2,1,117,119)        175.191          estimate D2E/DX2                !
 ! D24   D(2,1,117,120)        -65.3018         estimate D2E/DX2                !
 ! D25   D(8,1,117,118)        -55.8546         estimate D2E/DX2                !
 ! D26   D(8,1,117,119)         64.2925         estimate D2E/DX2                !
 ! D27   D(8,1,117,120)       -176.2004         estimate D2E/DX2                !
 ! D28   D(113,1,117,118)      179.7248         estimate D2E/DX2                !
 ! D29   D(113,1,117,119)      -60.1282         estimate D2E/DX2                !
 ! D30   D(113,1,117,120)       59.379          estimate D2E/DX2                !
 ! D31   D(1,2,3,4)              0.2067         estimate D2E/DX2                !
 ! D32   D(1,2,3,90)          -179.9694         estimate D2E/DX2                !
 ! D33   D(92,2,3,4)          -179.9347         estimate D2E/DX2                !
 ! D34   D(92,2,3,90)           -0.1108         estimate D2E/DX2                !
 ! D35   D(1,2,92,91)          179.7709         estimate D2E/DX2                !
 ! D36   D(1,2,92,93)            1.0376         estimate D2E/DX2                !
 ! D37   D(3,2,92,91)           -0.0369         estimate D2E/DX2                !
 ! D38   D(3,2,92,93)         -178.7702         estimate D2E/DX2                !
 ! D39   D(2,3,4,5)           -179.8843         estimate D2E/DX2                !
 ! D40   D(2,3,4,8)             -0.1807         estimate D2E/DX2                !
 ! D41   D(90,3,4,5)             0.3609         estimate D2E/DX2                !
 ! D42   D(90,3,4,8)          -179.9354         estimate D2E/DX2                !
 ! D43   D(2,3,90,91)            0.1701         estimate D2E/DX2                !
 ! D44   D(4,3,90,91)          179.9195         estimate D2E/DX2                !
 ! D45   D(3,4,5,6)            179.8465         estimate D2E/DX2                !
 ! D46   D(8,4,5,6)              0.1493         estimate D2E/DX2                !
 ! D47   D(3,4,8,1)              0.0829         estimate D2E/DX2                !
 ! D48   D(3,4,8,7)           -179.873          estimate D2E/DX2                !
 ! D49   D(5,4,8,1)            179.8705         estimate D2E/DX2                !
 ! D50   D(5,4,8,7)             -0.0853         estimate D2E/DX2                !
 ! D51   D(4,5,6,7)             -0.1777         estimate D2E/DX2                !
 ! D52   D(4,5,6,10)           179.8233         estimate D2E/DX2                !
 ! D53   D(5,6,7,8)              0.1639         estimate D2E/DX2                !
 ! D54   D(5,6,7,9)           -179.7958         estimate D2E/DX2                !
 ! D55   D(10,6,7,8)          -179.8373         estimate D2E/DX2                !
 ! D56   D(10,6,7,9)             0.203          estimate D2E/DX2                !
 ! D57   D(5,6,10,11)           -3.1249         estimate D2E/DX2                !
 ! D58   D(5,6,10,18)          176.6977         estimate D2E/DX2                !
 ! D59   D(7,6,10,11)          176.8764         estimate D2E/DX2                !
 ! D60   D(7,6,10,18)           -3.3011         estimate D2E/DX2                !
 ! D61   D(6,7,8,1)           -179.9952         estimate D2E/DX2                !
 ! D62   D(6,7,8,4)             -0.0545         estimate D2E/DX2                !
 ! D63   D(9,7,8,1)             -0.0376         estimate D2E/DX2                !
 ! D64   D(9,7,8,4)            179.9031         estimate D2E/DX2                !
 ! D65   D(6,10,11,12)         179.4026         estimate D2E/DX2                !
 ! D66   D(6,10,11,89)           0.0584         estimate D2E/DX2                !
 ! D67   D(18,10,11,12)         -0.433          estimate D2E/DX2                !
 ! D68   D(18,10,11,89)       -179.7771         estimate D2E/DX2                !
 ! D69   D(6,10,18,14)        -179.4691         estimate D2E/DX2                !
 ! D70   D(6,10,18,17)           0.9579         estimate D2E/DX2                !
 ! D71   D(11,10,18,14)          0.3664         estimate D2E/DX2                !
 ! D72   D(11,10,18,17)       -179.2066         estimate D2E/DX2                !
 ! D73   D(10,11,12,13)          0.4073         estimate D2E/DX2                !
 ! D74   D(10,11,12,88)       -178.0106         estimate D2E/DX2                !
 ! D75   D(89,11,12,13)        179.7645         estimate D2E/DX2                !
 ! D76   D(89,11,12,88)          1.3465         estimate D2E/DX2                !
 ! D77   D(11,12,13,14)         -0.2572         estimate D2E/DX2                !
 ! D78   D(11,12,13,19)        179.3601         estimate D2E/DX2                !
 ! D79   D(88,12,13,14)        178.1392         estimate D2E/DX2                !
 ! D80   D(88,12,13,19)         -2.2435         estimate D2E/DX2                !
 ! D81   D(12,13,14,15)        179.0611         estimate D2E/DX2                !
 ! D82   D(12,13,14,18)          0.1978         estimate D2E/DX2                !
 ! D83   D(19,13,14,15)         -0.5502         estimate D2E/DX2                !
 ! D84   D(19,13,14,18)       -179.4136         estimate D2E/DX2                !
 ! D85   D(12,13,19,20)        145.5156         estimate D2E/DX2                !
 ! D86   D(12,13,19,24)        -32.7865         estimate D2E/DX2                !
 ! D87   D(14,13,19,20)        -34.9004         estimate D2E/DX2                !
 ! D88   D(14,13,19,24)        146.7975         estimate D2E/DX2                !
 ! D89   D(13,14,15,16)       -179.2852         estimate D2E/DX2                !
 ! D90   D(18,14,15,16)         -0.3358         estimate D2E/DX2                !
 ! D91   D(13,14,18,10)         -0.2714         estimate D2E/DX2                !
 ! D92   D(13,14,18,17)        179.3535         estimate D2E/DX2                !
 ! D93   D(15,14,18,10)       -179.2671         estimate D2E/DX2                !
 ! D94   D(15,14,18,17)          0.3578         estimate D2E/DX2                !
 ! D95   D(14,15,16,17)          0.2061         estimate D2E/DX2                !
 ! D96   D(15,16,17,18)         -0.0043         estimate D2E/DX2                !
 ! D97   D(16,17,18,10)        179.4145         estimate D2E/DX2                !
 ! D98   D(16,17,18,14)         -0.1882         estimate D2E/DX2                !
 ! D99   D(13,19,20,21)       -177.7159         estimate D2E/DX2                !
 ! D100  D(13,19,20,87)          2.7796         estimate D2E/DX2                !
 ! D101  D(24,19,20,21)          0.6401         estimate D2E/DX2                !
 ! D102  D(24,19,20,87)       -178.8645         estimate D2E/DX2                !
 ! D103  D(13,19,24,23)        177.6251         estimate D2E/DX2                !
 ! D104  D(13,19,24,25)         -3.378          estimate D2E/DX2                !
 ! D105  D(20,19,24,23)         -0.7662         estimate D2E/DX2                !
 ! D106  D(20,19,24,25)        178.2307         estimate D2E/DX2                !
 ! D107  D(19,20,21,22)         -0.1184         estimate D2E/DX2                !
 ! D108  D(19,20,21,86)        179.9067         estimate D2E/DX2                !
 ! D109  D(87,20,21,22)        179.3893         estimate D2E/DX2                !
 ! D110  D(87,20,21,86)         -0.5856         estimate D2E/DX2                !
 ! D111  D(20,21,22,23)         -0.3016         estimate D2E/DX2                !
 ! D112  D(20,21,22,27)        179.8671         estimate D2E/DX2                !
 ! D113  D(86,21,22,23)        179.6734         estimate D2E/DX2                !
 ! D114  D(86,21,22,27)         -0.1579         estimate D2E/DX2                !
 ! D115  D(21,22,23,24)          0.1791         estimate D2E/DX2                !
 ! D116  D(21,22,23,26)       -179.4746         estimate D2E/DX2                !
 ! D117  D(27,22,23,24)       -179.9897         estimate D2E/DX2                !
 ! D118  D(27,22,23,26)          0.3567         estimate D2E/DX2                !
 ! D119  D(21,22,27,28)        146.2799         estimate D2E/DX2                !
 ! D120  D(21,22,27,57)        -35.0443         estimate D2E/DX2                !
 ! D121  D(23,22,27,28)        -33.5463         estimate D2E/DX2                !
 ! D122  D(23,22,27,57)        145.1296         estimate D2E/DX2                !
 ! D123  D(22,23,24,19)          0.368          estimate D2E/DX2                !
 ! D124  D(22,23,24,25)       -178.6398         estimate D2E/DX2                !
 ! D125  D(26,23,24,19)       -179.9787         estimate D2E/DX2                !
 ! D126  D(26,23,24,25)          1.0135         estimate D2E/DX2                !
 ! D127  D(22,27,28,29)        134.7611         estimate D2E/DX2                !
 ! D128  D(22,27,28,33)        -45.8396         estimate D2E/DX2                !
 ! D129  D(57,27,28,29)        -43.9333         estimate D2E/DX2                !
 ! D130  D(57,27,28,33)        135.4661         estimate D2E/DX2                !
 ! D131  D(22,27,57,58)        135.0751         estimate D2E/DX2                !
 ! D132  D(22,27,57,62)        -45.3468         estimate D2E/DX2                !
 ! D133  D(28,27,57,58)        -46.2293         estimate D2E/DX2                !
 ! D134  D(28,27,57,62)        133.3488         estimate D2E/DX2                !
 ! D135  D(27,28,29,30)        179.6201         estimate D2E/DX2                !
 ! D136  D(27,28,29,56)         -0.8146         estimate D2E/DX2                !
 ! D137  D(33,28,29,30)          0.207          estimate D2E/DX2                !
 ! D138  D(33,28,29,56)        179.7722         estimate D2E/DX2                !
 ! D139  D(27,28,33,32)        179.6888         estimate D2E/DX2                !
 ! D140  D(27,28,33,34)         -0.6359         estimate D2E/DX2                !
 ! D141  D(29,28,33,32)         -0.8996         estimate D2E/DX2                !
 ! D142  D(29,28,33,34)        178.7757         estimate D2E/DX2                !
 ! D143  D(28,29,30,31)          0.6606         estimate D2E/DX2                !
 ! D144  D(28,29,30,55)        179.7539         estimate D2E/DX2                !
 ! D145  D(56,29,30,31)       -178.9025         estimate D2E/DX2                !
 ! D146  D(56,29,30,55)          0.1909         estimate D2E/DX2                !
 ! D147  D(29,30,31,32)         -0.8092         estimate D2E/DX2                !
 ! D148  D(29,30,31,36)        177.2703         estimate D2E/DX2                !
 ! D149  D(55,30,31,32)       -179.9033         estimate D2E/DX2                !
 ! D150  D(55,30,31,36)         -1.8239         estimate D2E/DX2                !
 ! D151  D(30,31,32,33)          0.1076         estimate D2E/DX2                !
 ! D152  D(30,31,32,35)       -178.0104         estimate D2E/DX2                !
 ! D153  D(36,31,32,33)       -177.9997         estimate D2E/DX2                !
 ! D154  D(36,31,32,35)          3.8823         estimate D2E/DX2                !
 ! D155  D(30,31,36,37)       -136.468          estimate D2E/DX2                !
 ! D156  D(30,31,36,41)         42.4732         estimate D2E/DX2                !
 ! D157  D(32,31,36,37)         41.5517         estimate D2E/DX2                !
 ! D158  D(32,31,36,41)       -139.5071         estimate D2E/DX2                !
 ! D159  D(31,32,33,28)          0.7499         estimate D2E/DX2                !
 ! D160  D(31,32,33,34)       -178.9235         estimate D2E/DX2                !
 ! D161  D(35,32,33,28)        178.8764         estimate D2E/DX2                !
 ! D162  D(35,32,33,34)         -0.797          estimate D2E/DX2                !
 ! D163  D(31,36,37,38)        178.7826         estimate D2E/DX2                !
 ! D164  D(31,36,37,54)          0.6182         estimate D2E/DX2                !
 ! D165  D(41,36,37,38)         -0.2281         estimate D2E/DX2                !
 ! D166  D(41,36,37,54)       -178.3925         estimate D2E/DX2                !
 ! D167  D(31,36,41,40)       -178.6163         estimate D2E/DX2                !
 ! D168  D(31,36,41,42)          0.1052         estimate D2E/DX2                !
 ! D169  D(37,36,41,40)          0.3616         estimate D2E/DX2                !
 ! D170  D(37,36,41,42)        179.0831         estimate D2E/DX2                !
 ! D171  D(36,37,38,39)         -0.2745         estimate D2E/DX2                !
 ! D172  D(36,37,38,53)       -178.9564         estimate D2E/DX2                !
 ! D173  D(54,37,38,39)        177.8858         estimate D2E/DX2                !
 ! D174  D(54,37,38,53)         -0.7962         estimate D2E/DX2                !
 ! D175  D(37,38,39,40)          0.6485         estimate D2E/DX2                !
 ! D176  D(37,38,39,48)       -179.2124         estimate D2E/DX2                !
 ! D177  D(53,38,39,40)        179.3655         estimate D2E/DX2                !
 ! D178  D(53,38,39,48)         -0.4954         estimate D2E/DX2                !
 ! D179  D(38,39,40,41)         -0.5188         estimate D2E/DX2                !
 ! D180  D(38,39,40,47)       -179.9143         estimate D2E/DX2                !
 ! D181  D(48,39,40,41)        179.3296         estimate D2E/DX2                !
 ! D182  D(48,39,40,47)         -0.066          estimate D2E/DX2                !
 ! D183  D(38,39,48,49)        179.0268         estimate D2E/DX2                !
 ! D184  D(40,39,48,49)         -0.8256         estimate D2E/DX2                !
 ! D185  D(39,40,41,36)          0.0063         estimate D2E/DX2                !
 ! D186  D(39,40,41,42)       -178.7718         estimate D2E/DX2                !
 ! D187  D(47,40,41,36)        179.4307         estimate D2E/DX2                !
 ! D188  D(47,40,41,42)          0.6526         estimate D2E/DX2                !
 ! D189  D(36,41,42,43)         81.9517         estimate D2E/DX2                !
 ! D190  D(40,41,42,43)        -99.2662         estimate D2E/DX2                !
 ! D191  D(41,42,43,44)         60.9887         estimate D2E/DX2                !
 ! D192  D(41,42,43,45)        179.8631         estimate D2E/DX2                !
 ! D193  D(41,42,43,46)        -60.9652         estimate D2E/DX2                !
 ! D194  D(39,48,49,50)       -179.2848         estimate D2E/DX2                !
 ! D195  D(39,48,49,51)        -60.5167         estimate D2E/DX2                !
 ! D196  D(39,48,49,52)         62.0051         estimate D2E/DX2                !
 ! D197  D(27,57,58,59)        179.2759         estimate D2E/DX2                !
 ! D198  D(27,57,58,85)         -0.3265         estimate D2E/DX2                !
 ! D199  D(62,57,58,59)         -0.3122         estimate D2E/DX2                !
 ! D200  D(62,57,58,85)       -179.9146         estimate D2E/DX2                !
 ! D201  D(27,57,62,61)       -179.9678         estimate D2E/DX2                !
 ! D202  D(27,57,62,63)          0.564          estimate D2E/DX2                !
 ! D203  D(58,57,62,61)         -0.3815         estimate D2E/DX2                !
 ! D204  D(58,57,62,63)       -179.8498         estimate D2E/DX2                !
 ! D205  D(57,58,59,60)          0.4892         estimate D2E/DX2                !
 ! D206  D(57,58,59,84)        179.9723         estimate D2E/DX2                !
 ! D207  D(85,58,59,60)       -179.9109         estimate D2E/DX2                !
 ! D208  D(85,58,59,84)         -0.4277         estimate D2E/DX2                !
 ! D209  D(58,59,60,61)          0.0321         estimate D2E/DX2                !
 ! D210  D(58,59,60,65)       -177.7564         estimate D2E/DX2                !
 ! D211  D(84,59,60,61)       -179.4501         estimate D2E/DX2                !
 ! D212  D(84,59,60,65)          2.7614         estimate D2E/DX2                !
 ! D213  D(59,60,61,62)         -0.7372         estimate D2E/DX2                !
 ! D214  D(59,60,61,64)        178.9778         estimate D2E/DX2                !
 ! D215  D(65,60,61,62)        177.1047         estimate D2E/DX2                !
 ! D216  D(65,60,61,64)         -3.1803         estimate D2E/DX2                !
 ! D217  D(59,60,65,66)        -46.2906         estimate D2E/DX2                !
 ! D218  D(59,60,65,70)        134.6078         estimate D2E/DX2                !
 ! D219  D(61,60,65,66)        135.9822         estimate D2E/DX2                !
 ! D220  D(61,60,65,70)        -43.1193         estimate D2E/DX2                !
 ! D221  D(60,61,62,57)          0.9246         estimate D2E/DX2                !
 ! D222  D(60,61,62,63)       -179.609          estimate D2E/DX2                !
 ! D223  D(64,61,62,57)       -178.7914         estimate D2E/DX2                !
 ! D224  D(64,61,62,63)          0.6749         estimate D2E/DX2                !
 ! D225  D(60,65,66,67)       -179.0192         estimate D2E/DX2                !
 ! D226  D(60,65,66,79)          0.259          estimate D2E/DX2                !
 ! D227  D(70,65,66,67)          0.1093         estimate D2E/DX2                !
 ! D228  D(70,65,66,79)        179.3874         estimate D2E/DX2                !
 ! D229  D(60,65,70,69)        179.1364         estimate D2E/DX2                !
 ! D230  D(60,65,70,71)         -2.1085         estimate D2E/DX2                !
 ! D231  D(66,65,70,69)         -0.0192         estimate D2E/DX2                !
 ! D232  D(66,65,70,71)        178.7359         estimate D2E/DX2                !
 ! D233  D(65,66,67,68)         -0.1351         estimate D2E/DX2                !
 ! D234  D(65,66,67,78)        179.5544         estimate D2E/DX2                !
 ! D235  D(79,66,67,68)       -179.3703         estimate D2E/DX2                !
 ! D236  D(79,66,67,78)          0.3192         estimate D2E/DX2                !
 ! D237  D(65,66,79,80)       -176.3791         estimate D2E/DX2                !
 ! D238  D(67,66,79,80)          2.8894         estimate D2E/DX2                !
 ! D239  D(66,67,68,69)          0.0673         estimate D2E/DX2                !
 ! D240  D(66,67,68,73)       -179.7328         estimate D2E/DX2                !
 ! D241  D(78,67,68,69)       -179.6211         estimate D2E/DX2                !
 ! D242  D(78,67,68,73)          0.5787         estimate D2E/DX2                !
 ! D243  D(67,68,69,70)          0.0212         estimate D2E/DX2                !
 ! D244  D(67,68,69,72)       -179.3807         estimate D2E/DX2                !
 ! D245  D(73,68,69,70)        179.8366         estimate D2E/DX2                !
 ! D246  D(73,68,69,72)          0.4347         estimate D2E/DX2                !
 ! D247  D(67,68,73,74)         -0.1189         estimate D2E/DX2                !
 ! D248  D(69,68,73,74)       -179.9258         estimate D2E/DX2                !
 ! D249  D(68,69,70,65)         -0.0454         estimate D2E/DX2                !
 ! D250  D(68,69,70,71)       -178.7937         estimate D2E/DX2                !
 ! D251  D(72,69,70,65)        179.3401         estimate D2E/DX2                !
 ! D252  D(72,69,70,71)          0.5917         estimate D2E/DX2                !
 ! D253  D(68,73,74,75)         61.3151         estimate D2E/DX2                !
 ! D254  D(68,73,74,76)        179.9463         estimate D2E/DX2                !
 ! D255  D(68,73,74,77)        -61.4362         estimate D2E/DX2                !
 ! D256  D(66,79,80,81)        -63.1767         estimate D2E/DX2                !
 ! D257  D(66,79,80,82)         59.6789         estimate D2E/DX2                !
 ! D258  D(66,79,80,83)        178.2233         estimate D2E/DX2                !
 ! D259  D(3,90,91,92)          -0.1879         estimate D2E/DX2                !
 ! D260  D(3,90,91,94)         179.8423         estimate D2E/DX2                !
 ! D261  D(90,91,92,2)           0.162          estimate D2E/DX2                !
 ! D262  D(90,91,92,93)        178.9225         estimate D2E/DX2                !
 ! D263  D(94,91,92,2)        -179.8711         estimate D2E/DX2                !
 ! D264  D(94,91,92,93)         -1.1106         estimate D2E/DX2                !
 ! D265  D(90,91,94,95)        167.3212         estimate D2E/DX2                !
 ! D266  D(90,91,94,99)        -12.7595         estimate D2E/DX2                !
 ! D267  D(92,91,94,95)        -12.6427         estimate D2E/DX2                !
 ! D268  D(92,91,94,99)        167.2767         estimate D2E/DX2                !
 ! D269  D(91,94,95,96)        179.5853         estimate D2E/DX2                !
 ! D270  D(91,94,95,112)        -1.5187         estimate D2E/DX2                !
 ! D271  D(99,94,95,96)         -0.3376         estimate D2E/DX2                !
 ! D272  D(99,94,95,112)       178.5584         estimate D2E/DX2                !
 ! D273  D(91,94,99,98)       -179.92           estimate D2E/DX2                !
 ! D274  D(91,94,99,100)        -0.7322         estimate D2E/DX2                !
 ! D275  D(95,94,99,98)          0.0021         estimate D2E/DX2                !
 ! D276  D(95,94,99,100)       179.19           estimate D2E/DX2                !
 ! D277  D(94,95,96,97)          0.3904         estimate D2E/DX2                !
 ! D278  D(94,95,96,111)       179.8397         estimate D2E/DX2                !
 ! D279  D(112,95,96,97)      -178.5151         estimate D2E/DX2                !
 ! D280  D(112,95,96,111)        0.9342         estimate D2E/DX2                !
 ! D281  D(95,96,97,98)         -0.0956         estimate D2E/DX2                !
 ! D282  D(95,96,97,102)       179.7773         estimate D2E/DX2                !
 ! D283  D(111,96,97,98)      -179.5474         estimate D2E/DX2                !
 ! D284  D(111,96,97,102)        0.3256         estimate D2E/DX2                !
 ! D285  D(96,97,98,99)         -0.2406         estimate D2E/DX2                !
 ! D286  D(96,97,98,101)      -179.8377         estimate D2E/DX2                !
 ! D287  D(102,97,98,99)       179.8976         estimate D2E/DX2                !
 ! D288  D(102,97,98,101)        0.3005         estimate D2E/DX2                !
 ! D289  D(96,97,102,103)      179.6822         estimate D2E/DX2                !
 ! D290  D(96,97,102,110)       -0.2809         estimate D2E/DX2                !
 ! D291  D(98,97,102,103)       -0.4562         estimate D2E/DX2                !
 ! D292  D(98,97,102,110)      179.5807         estimate D2E/DX2                !
 ! D293  D(97,98,99,94)          0.2889         estimate D2E/DX2                !
 ! D294  D(97,98,99,100)      -178.9073         estimate D2E/DX2                !
 ! D295  D(101,98,99,94)       179.8934         estimate D2E/DX2                !
 ! D296  D(101,98,99,100)        0.6972         estimate D2E/DX2                !
 ! D297  D(97,102,103,104)      -0.0243         estimate D2E/DX2                !
 ! D298  D(97,102,103,106)     179.9818         estimate D2E/DX2                !
 ! D299  D(110,102,103,104)    179.9395         estimate D2E/DX2                !
 ! D300  D(110,102,103,106)     -0.0544         estimate D2E/DX2                !
 ! D301  D(102,103,106,107)      0.074          estimate D2E/DX2                !
 ! D302  D(102,103,106,108)   -179.9243         estimate D2E/DX2                !
 ! D303  D(104,103,106,107)   -179.9204         estimate D2E/DX2                !
 ! D304  D(104,103,106,108)      0.0813         estimate D2E/DX2                !
 ! D305  D(103,106,108,109)     -0.0114         estimate D2E/DX2                !
 ! D306  D(107,106,108,109)    179.9903         estimate D2E/DX2                !
 --------------------------------------------------------------------------------
 Trust Radius=3.00D-01 FncErr=1.00D-07 GrdErr=1.00D-06 EigMax=2.50D+02 EigMin=1.00D-04
 Number of steps in this run=    662 maximum allowed number of steps=    720.
 GradGradGradGradGradGradGradGradGradGradGradGradGradGradGradGradGradGrad

 Stoichiometry    C61H46N4O6S3
 Framework group  C1[X(C61H46N4O6S3)]
 Deg. of freedom   354
 Full point group                 C1      NOp   1
 Largest Abelian subgroup         C1      NOp   1
 Largest concise Abelian subgroup C1      NOp   1
                         Standard orientation:                         
 ---------------------------------------------------------------------
 Center     Atomic      Atomic             Coordinates (Angstroms)
 Number     Number       Type             X           Y           Z
 ---------------------------------------------------------------------
      1          6           0        7.546561   -1.280310    2.683097
      2          6           0        8.592842   -0.800254    1.678459
      3          6           0        7.982348   -0.250768    0.559527
      4          6           0        6.560027   -0.312166    0.721275
      5         16           0        5.139569    0.126570   -0.154442
      6          6           0        4.110677   -0.497597    1.154165
      7          6           0        4.886064   -1.009111    2.184047
      8          6           0        6.267212   -0.903068    1.938473
      9          1           0        4.434723   -1.436566    3.066072
     10          6           0        2.664740   -0.421969    1.036834
     11          6           0        2.033004    0.180668   -0.038723
     12          6           0        0.630861    0.259925   -0.188264
     13          6           0       -0.271476   -0.248550    0.727084
     14          6           0        0.325305   -0.886039    1.870252
     15          7           0       -0.341718   -1.432283    2.889414
     16         16           0        0.764611   -2.009353    3.945696
     17          7           0        2.137532   -1.584801    3.156203
     18          6           0        1.773595   -0.971653    2.029089
     19          6           0       -1.727905   -0.129793    0.534743
     20          6           0       -2.627700   -1.127090    0.949407
     21          6           0       -3.989468   -1.015240    0.716343
     22          6           0       -4.520458    0.105162    0.056672
     23          6           0       -3.630876    1.111584   -0.353867
     24          6           0       -2.271351    0.992571   -0.114460
     25          1           0       -1.618590    1.799849   -0.426000
     26          1           0       -4.012512    1.990779   -0.857038
     27          7           0       -5.905965    0.218076   -0.183178
     28          6           0       -6.541714    1.490986   -0.162595
     29          6           0       -7.452277    1.849593   -1.164607
     30          6           0       -8.080003    3.087880   -1.142777
     31          6           0       -7.814461    4.022365   -0.129081
     32          6           0       -6.902809    3.649608    0.871239
     33          6           0       -6.281857    2.406948    0.863770
     34          1           0       -5.595470    2.138317    1.657746
     35          1           0       -6.698462    4.333679    1.687379
     36          6           0       -8.431479    5.372355   -0.123591
     37          6           0       -7.655440    6.504999    0.184186
     38          6           0       -8.175336    7.787662    0.179345
     39          6           0       -9.520917    7.991698   -0.146516
     40          6           0      -10.322163    6.890794   -0.449187
     41          6           0       -9.781010    5.603663   -0.436548
     42          8           0      -10.630860    4.567494   -0.772508
     43          6           0      -11.174607    3.854858    0.341958
     44          1           0      -11.768846    4.521873    0.977035
     45          1           0      -11.818644    3.079567   -0.072520
     46          1           0      -10.385781    3.390238    0.941552
     47          1           0      -11.366991    6.989955   -0.708897
     48          8           0       -9.950727    9.284025   -0.144623
     49          6           0      -11.303899    9.547345   -0.489284
     50          1           0      -11.419341   10.628514   -0.434744
     51          1           0      -11.531966    9.209206   -1.506079
     52          1           0      -11.997205    9.073730    0.214791
     53          1           0       -7.557214    8.648199    0.402949
     54          1           0       -6.602998    6.368378    0.405019
     55          1           0       -8.776499    3.344012   -1.929784
     56          1           0       -7.660802    1.152742   -1.967442
     57          6           0       -6.684190   -0.938764   -0.477466
     58          6           0       -7.924033   -1.137885    0.141914
     59          6           0       -8.692136   -2.255911   -0.153082
     60          6           0       -8.251760   -3.224345   -1.068286
     61          6           0       -7.002848   -3.017724   -1.673254
     62          6           0       -6.234035   -1.894297   -1.394612
     63          1           0       -5.276141   -1.759105   -1.882366
     64          1           0       -6.622935   -3.753594   -2.372990
     65          6           0       -9.074355   -4.404066   -1.438322
     66          6           0       -9.741533   -5.204812   -0.488005
     67          6           0      -10.490422   -6.320690   -0.879745
     68          6           0      -10.589114   -6.656541   -2.233187
     69          6           0       -9.938791   -5.878317   -3.191525
     70          6           0       -9.200749   -4.778553   -2.783035
     71          1           0       -8.714408   -4.166883   -3.534234
     72          1           0      -10.032331   -6.144342   -4.236502
     73          8           0      -11.299441   -7.720324   -2.704903
     74          6           0      -11.985477   -8.550716   -1.780708
     75          1           0      -12.745332   -7.991399   -1.222891
     76          1           0      -12.473802   -9.319260   -2.377619
     77          1           0      -11.294191   -9.027627   -1.076442
     78          1           0      -10.986088   -6.922385   -0.134488
     79          8           0       -9.602716   -4.840751    0.820595
     80          6           0      -10.183472   -5.647349    1.833286
     81          1           0      -11.275635   -5.680701    1.748293
     82          1           0       -9.784755   -6.667732    1.813423
     83          1           0       -9.912805   -5.176009    2.776807
     84          1           0       -9.646101   -2.386068    0.339831
     85          1           0       -8.285881   -0.405206    0.853395
     86          1           0       -4.654626   -1.802552    1.047713
     87          1           0       -2.255914   -1.998856    1.468874
     88          1           0        0.252500    0.727024   -1.089395
     89          1           0        2.635999    0.614377   -0.828430
     90         16           0        9.123789    0.305543   -0.605419
     91          6           0       10.469575   -0.212829    0.424075
     92          6           0        9.994005   -0.777274    1.599899
     93          1           0       10.653402   -1.174492    2.359953
     94          6           0       11.846087   -0.026495    0.002967
     95          6           0       12.911052   -0.188287    0.914530
     96          6           0       14.220700   -0.019765    0.513571
     97          6           0       14.553611    0.327482   -0.814183
     98          6           0       13.488229    0.495374   -1.724850
     99          6           0       12.178791    0.320031   -1.325168
    100          1           0       11.391855    0.441040   -2.060468
    101          1           0       13.683793    0.758683   -2.755101
    102          6           0       15.951965    0.484358   -1.128773
    103          6           0       16.598111    0.801101   -2.284978
    104          6           0       15.969472    1.065192   -3.530449
    105          7           0       15.544201    1.294906   -4.583914
    106          6           0       18.103574    0.878389   -2.242749
    107          8           0       18.738018    0.672509   -1.243038
    108          8           0       18.723307    1.195286   -3.399137
    109          1           0       18.087752    1.332222   -4.115879
    110          1           0       16.637229    0.323158   -0.300363
    111          1           0       15.018492   -0.148074    1.237166
    112          1           0       12.704703   -0.430789    1.949174
    113          6           0        7.637268   -2.804247    2.911604
    114          1           0        7.558605   -3.347206    1.967676
    115          1           0        8.589316   -3.066421    3.381452
    116          1           0        6.831512   -3.140233    3.569513
    117          6           0        7.660911   -0.524229    4.024198
    118          1           0        7.602613    0.555306    3.871714
    119          1           0        6.853024   -0.819794    4.698782
    120          1           0        8.611489   -0.752222    4.514437
 ---------------------------------------------------------------------
 Rotational constants (GHZ):           0.0298996           0.0053444           0.0048132
 Standard basis: 6-311G(d,p) (5D, 7F)
 There are  1706 symmetry adapted cartesian basis functions of A   symmetry.
 There are  1632 symmetry adapted basis functions of A   symmetry.
  1632 basis functions,  2778 primitive gaussians,  1706 cartesian basis functions
   268 alpha electrons      268 beta electrons
       nuclear repulsion energy     10029.7007763290 Hartrees.
 NAtoms=  120 NActive=  120 NUniq=  120 SFac= 1.00D+00 NAtFMM=   60 NAOKFM=T Big=T
 Integral buffers will be    131072 words long.
 Raffenetti 2 integral format.
 Two-electron integral symmetry is turned on.
 ------------------------------------------------------------------------------
 Polarizable Continuum Model (PCM)
 =================================
 Model                : PCM.
 Atomic radii         : UFF (Universal Force Field).
 Polarization charges : Total charges.
 Charge compensation  : None.
 Solution method      : On-the-fly selection.
 Cavity type          : Scaled VdW (van der Waals Surface) (Alpha=1.100).
 Cavity algorithm     : GePol (No added spheres)
                        Default sphere list used, NSphG=  120.
                        Lebedev-Laikov grids with approx.  5.0 points / Ang**2.
                        Smoothing algorithm: York/Karplus (Gamma=1.0000).
                        Polarization charges: spherical gaussians, with
                                              point-specific exponents (IZeta= 3).
                        Self-potential: point-specific (ISelfS= 7).
                        Self-field    : sphere-specific E.n sum rule (ISelfD= 2).
 1st derivatives      : Analytical E(r).r(x)/FMM algorithm (CHGder, D1EAlg=3).
                        Cavity 1st derivative terms included.
 Solvent              : Dichloromethane, Eps=   8.930000 Eps(inf)=   2.028346
 ------------------------------------------------------------------------------
 One-electron integrals computed using PRISM.
 NBasis=  1632 RedAO= T EigKep=  1.15D-04  NBF=  1632
 NBsUse=  1632 1.00D-06 EigRej= -1.00D+00 NBFU=  1632
 ExpMin= 7.71D-02 ExpMax= 9.34D+04 ExpMxC= 3.17D+03 IAcc=3 IRadAn=         5 AccDes= 0.00D+00
 Harris functional with IExCor=  402 and IRadAn=       5 diagonalized for initial guess.
 HarFok:  IExCor=  402 AccDes= 0.00D+00 IRadAn=         5 IDoV= 1 UseB2=F ITyADJ=14
 ICtDFT=  3500011 ScaDFX=  1.000000  1.000000  1.000000  1.000000
 FoFCou: FMM=F IPFlag=           0 FMFlag=      100000 FMFlg1=        2001
         NFxFlg=           0 DoJE=T BraDBF=F KetDBF=T FulRan=T
         wScrn=  0.000000 ICntrl=       500 IOpCl=  0 I1Cent=   200000004 NGrid=           0
         NMat0=    1 NMatS0=      1 NMatT0=    0 NMatD0=    1 NMtDS0=    0 NMtDT0=    0
 Petite list used in FoFCou.
 Requested convergence on RMS density matrix=1.00D-08 within 128 cycles.
 Requested convergence on MAX density matrix=1.00D-06.
 Requested convergence on             energy=1.00D-06.
 No special actions if energy rises.
 Inv3:  Mode=1 IEnd=   236669772.
 Iteration    1 A*A^-1 deviation from unit magnitude is 4.44D-15 for   8294.
 Iteration    1 A*A^-1 deviation from orthogonality  is 2.66D-15 for   8348   6302.
 Iteration    1 A^-1*A deviation from unit magnitude is 4.00D-15 for   6387.
 Iteration    1 A^-1*A deviation from orthogonality  is 1.87D-14 for   8423   8391.
 Error on total polarization charges =  0.02939
 SCF Done:  E(RB3LYP) =  -4217.87398792     A.U. after   15 cycles
            NFock= 15  Conv=0.28D-08     -V/T= 2.0032
 Hyperfine terms turned off by default for NAtoms > 100.

 **********************************************************************

            Population analysis using the SCF Density.

 **********************************************************************

 Orbital symmetries:
       Occupied  (A) (A) (A) (A) (A) (A) (A) (A) (A) (A) (A) (A)
                 (A) (A) (A) (A) (A) (A) (A) (A) (A) (A) (A) (A)
                 (A) (A) (A) (A) (A) (A) (A) (A) (A) (A) (A) (A)
                 (A) (A) (A) (A) (A) (A) (A) (A) (A) (A) (A) (A)
                 (A) (A) (A) (A) (A) (A) (A) (A) (A) (A) (A) (A)
                 (A) (A) (A) (A) (A) (A) (A) (A) (A) (A) (A) (A)
                 (A) (A) (A) (A) (A) (A) (A) (A) (A) (A) (A) (A)
                 (A) (A) (A) (A) (A) (A) (A) (A) (A) (A) (A) (A)
                 (A) (A) (A) (A) (A) (A) (A) (A) (A) (A) (A) (A)
                 (A) (A) (A) (A) (A) (A) (A) (A) (A) (A) (A) (A)
                 (A) (A) (A) (A) (A) (A) (A) (A) (A) (A) (A) (A)
                 (A) (A) (A) (A) (A) (A) (A) (A) (A) (A) (A) (A)
                 (A) (A) (A) (A) (A) (A) (A) (A) (A) (A) (A) (A)
                 (A) (A) (A) (A) (A) (A) (A) (A) (A) (A) (A) (A)
                 (A) (A) (A) (A) (A) (A) (A) (A) (A) (A) (A) (A)
                 (A) (A) (A) (A) (A) (A) (A) (A) (A) (A) (A) (A)
                 (A) (A) (A) (A) (A) (A) (A) (A) (A) (A) (A) (A)
                 (A) (A) (A) (A) (A) (A) (A) (A) (A) (A) (A) (A)
                 (A) (A) (A) (A) (A) (A) (A) (A) (A) (A) (A) (A)
                 (A) (A) (A) (A) (A) (A) (A) (A) (A) (A) (A) (A)
                 (A) (A) (A) (A) (A) (A) (A) (A) (A) (A) (A) (A)
                 (A) (A) (A) (A) (A) (A) (A) (A) (A) (A) (A) (A)
                 (A) (A) (A) (A)
       Virtual   (A) (A) (A) (A) (A) (A) (A) (A) (A) (A) (A) (A)
                 (A) (A) (A) (A) (A) (A) (A) (A) (A) (A) (A) (A)
                 (A) (A) (A) (A) (A) (A) (A) (A) (A) (A) (A) (A)
                 (A) (A) (A) (A) (A) (A) (A) (A) (A) (A) (A) (A)
                 (A) (A) (A) (A) (A) (A) (A) (A) (A) (A) (A) (A)
                 (A) (A) (A) (A) (A) (A) (A) (A) (A) (A) (A) (A)
                 (A) (A) (A) (A) (A) (A) (A) (A) (A) (A) (A) (A)
[...]
 Alpha virt. eigenvalues --    2.26612   2.27742   2.28553   2.28582   2.28615
 Alpha virt. eigenvalues --    2.29120   2.30208   2.30612   2.30840   2.30858
 Alpha virt. eigenvalues --    2.30937   2.31329   2.31606   2.31891   2.31989
 Alpha virt. eigenvalues --    2.32385   2.32815   2.32888   2.33349   2.33786
 Alpha virt. eigenvalues --    2.34126   2.34768   2.34913   2.35073   2.35462
 Alpha virt. eigenvalues --    2.35522   2.35886   2.36850   2.37506   2.37757
 Alpha virt. eigenvalues --    2.37973   2.38569   2.39106   2.39399   2.39517
 Alpha virt. eigenvalues --    2.40040   2.40190   2.40469   2.40597   2.40703
 Alpha virt. eigenvalues --    2.40911   2.41360   2.41923   2.42205   2.42446
 Alpha virt. eigenvalues --    2.42747   2.43145   2.44072   2.44418   2.44819
 Alpha virt. eigenvalues --    2.44942   2.45454   2.45733   2.45820   2.46551
 Alpha virt. eigenvalues --    2.46872   2.47040   2.48203   2.48620   2.49099
 Alpha virt. eigenvalues --    2.49282   2.49618   2.49765   2.50183   2.50435
 Alpha virt. eigenvalues --    2.50877   2.51102   2.51179   2.51292   2.51511
 Alpha virt. eigenvalues --    2.52052   2.52699   2.52836   2.53287   2.53669
 Alpha virt. eigenvalues --    2.53920   2.54788   2.54948   2.55274   2.55956
 Alpha virt. eigenvalues --    2.56062   2.56703   2.56758   2.57574   2.58008
 Alpha virt. eigenvalues --    2.58110   2.58219   2.58530   2.58740   2.58969
 Alpha virt. eigenvalues --    2.59699   2.60095   2.60349   2.60623   2.60867
 Alpha virt. eigenvalues --    2.60994   2.61127   2.61263   2.61599   2.62197
 Alpha virt. eigenvalues --    2.62369   2.62632   2.62972   2.63110   2.63496
 Alpha virt. eigenvalues --    2.63610   2.63830   2.64329   2.64563   2.64683
 Alpha virt. eigenvalues --    2.64946   2.65005   2.65535   2.66047   2.66159
 Alpha virt. eigenvalues --    2.66292   2.66497   2.66813   2.67033   2.67292
 Alpha virt. eigenvalues --    2.67341   2.67453   2.67699   2.67935   2.68395
 Alpha virt. eigenvalues --    2.68532   2.69082   2.69186   2.69368   2.69490
 Alpha virt. eigenvalues --    2.69868   2.70526   2.70719   2.70786   2.71540
 Alpha virt. eigenvalues --    2.71628   2.71929   2.72048   2.72455   2.72918
 Alpha virt. eigenvalues --    2.73189   2.73492   2.73695   2.74276   2.74567
 Alpha virt. eigenvalues --    2.74850   2.75141   2.75740   2.75764   2.76060
 Alpha virt. eigenvalues --    2.76417   2.76682   2.77025   2.77353   2.77921
 Alpha virt. eigenvalues --    2.78518   2.78996   2.79487   2.79569   2.80142
 Alpha virt. eigenvalues --    2.80761   2.81260   2.81512   2.81739   2.82103
 Alpha virt. eigenvalues --    2.82359   2.82933   2.83249   2.83539   2.83935
 Alpha virt. eigenvalues --    2.84458   2.84578   2.85108   2.85303   2.85734
 Alpha virt. eigenvalues --    2.86279   2.86772   2.87127   2.87278   2.87413
 Alpha virt. eigenvalues --    2.87913   2.88095   2.88839   2.89287   2.89833
 Alpha virt. eigenvalues --    2.90150   2.90349   2.90753   2.91118   2.91509
 Alpha virt. eigenvalues --    2.92014   2.92167   2.92239   2.92449   2.93022
 Alpha virt. eigenvalues --    2.93420   2.93540   2.93856   2.94531   2.94669
 Alpha virt. eigenvalues --    2.95434   2.96281   2.96625   2.97077   2.97329
 Alpha virt. eigenvalues --    2.97999   2.98183   2.98274   2.98840   2.99256
 Alpha virt. eigenvalues --    3.01754   3.01920   3.02338   3.02646   3.03093
 Alpha virt. eigenvalues --    3.03493   3.03506   3.03845   3.04063   3.04331
 Alpha virt. eigenvalues --    3.04726   3.05311   3.05682   3.06262   3.06437
 Alpha virt. eigenvalues --    3.07082   3.07426   3.08777   3.09186   3.09865
 Alpha virt. eigenvalues --    3.10216   3.10573   3.11185   3.12137   3.12665
 Alpha virt. eigenvalues --    3.13422   3.13576   3.15487   3.16528   3.16871
 Alpha virt. eigenvalues --    3.16976   3.17399   3.17667   3.18545   3.18771
 Alpha virt. eigenvalues --    3.19421   3.19646   3.20116   3.20279   3.20754
 Alpha virt. eigenvalues --    3.21629   3.21850   3.22252   3.23283   3.23352
 Alpha virt. eigenvalues --    3.23918   3.24879   3.25445   3.26514   3.27318
 Alpha virt. eigenvalues --    3.28577   3.29406   3.30644   3.30762   3.31157
 Alpha virt. eigenvalues --    3.33044   3.33121   3.33411   3.33536   3.34170
 Alpha virt. eigenvalues --    3.35230   3.35859   3.35999   3.36564   3.36713
 Alpha virt. eigenvalues --    3.37574   3.37758   3.38525   3.38848   3.40336
 Alpha virt. eigenvalues --    3.40562   3.40979   3.42011   3.43442   3.44301
 Alpha virt. eigenvalues --    3.44458   3.46716   3.47365   3.48071   3.48793
 Alpha virt. eigenvalues --    3.49057   3.50195   3.50382   3.51904   3.52379
 Alpha virt. eigenvalues --    3.52425   3.52859   3.53995   3.54248   3.54892
 Alpha virt. eigenvalues --    3.55108   3.55825   3.56246   3.56797   3.58212
 Alpha virt. eigenvalues --    3.58357   3.59128   3.59663   3.60821   3.61102
 Alpha virt. eigenvalues --    3.62720   3.63389   3.65825   3.66868   3.71448
 Alpha virt. eigenvalues --    3.72983   3.74710   3.75169   3.75502   3.75525
 Alpha virt. eigenvalues --    3.75762   3.75973   3.76741   3.76969   3.77961
 Alpha virt. eigenvalues --    3.78761   3.78852   3.79176   3.79632   3.80537
 Alpha virt. eigenvalues --    3.81279   3.81387   3.82034   3.82439   3.83837
 Alpha virt. eigenvalues --    3.85556   3.86277   3.86453   3.86634   3.91928
 Alpha virt. eigenvalues --    3.93063   3.96629   3.97406   3.98118   3.98683
 Alpha virt. eigenvalues --    3.99162   3.99350   4.01982   4.02391   4.03220
 Alpha virt. eigenvalues --    4.04057   4.05323   4.06135   4.07854   4.08827
 Alpha virt. eigenvalues --    4.09716   4.10416   4.11399   4.11602   4.11674
 Alpha virt. eigenvalues --    4.12196   4.12506   4.13439   4.13846   4.15016
 Alpha virt. eigenvalues --    4.15562   4.16747   4.17283   4.17354   4.18522
 Alpha virt. eigenvalues --    4.18744   4.19281   4.19949   4.24314   4.28277
 Alpha virt. eigenvalues --    4.30693   4.39853   4.42231   4.46693   4.46978
 Alpha virt. eigenvalues --    4.52505   4.55430   4.60105   4.64229   4.71608
 Alpha virt. eigenvalues --    4.74205   4.77184   4.80515   4.82137   4.82415
 Alpha virt. eigenvalues --    4.82577   4.84145   4.85527   4.85670   4.88847
 Alpha virt. eigenvalues --    4.88967   4.89009   4.92983   5.01824   5.04382
 Alpha virt. eigenvalues --    5.09492   5.12784   5.25646   5.26329   5.26990
 Alpha virt. eigenvalues --    5.27668   5.31558   5.54737   5.70908   5.75733
 Alpha virt. eigenvalues --    5.76332   5.77675   5.79710   7.79039   7.80348
 Alpha virt. eigenvalues --    7.83504  17.13198  17.17936  17.20667  17.29770
 Alpha virt. eigenvalues --   17.32256  17.43374  17.50645  17.52385  17.55982
 Alpha virt. eigenvalues --   23.38748  23.43969  23.46597  23.47931  23.52774
 Alpha virt. eigenvalues --   23.60118  23.61709  23.62354  23.65437  23.70990
 Alpha virt. eigenvalues --   23.76153  23.76901  23.81520  23.84459  23.85565
 Alpha virt. eigenvalues --   23.85933  23.86287  23.86407  23.86950  23.87336
 Alpha virt. eigenvalues --   23.87590  23.87623  23.87984  23.90049  23.90533
 Alpha virt. eigenvalues --   23.91178  23.91354  23.91976  23.92184  23.92387
 Alpha virt. eigenvalues --   23.92471  23.92890  23.92987  23.93993  23.98046
 Alpha virt. eigenvalues --   24.00602  24.00872  24.01214  24.01819  24.02753
 Alpha virt. eigenvalues --   24.04469  24.05069  24.05309  24.05568  24.08367
 Alpha virt. eigenvalues --   24.09020  24.10400  24.10836  24.11253  24.11698
 Alpha virt. eigenvalues --   24.11880  24.12291  24.12781  24.13489  24.16290
 Alpha virt. eigenvalues --   24.16515  24.16579  24.17852  24.18267  24.18525
 Alpha virt. eigenvalues --   24.41870  35.47547  35.60548  35.64776  35.80933
 Alpha virt. eigenvalues --   49.84009  49.91096  49.91288  49.92769  49.93553
 Alpha virt. eigenvalues --   50.00512 188.90343 188.91155 188.94713
          Condensed to atoms (all electrons):
 Mulliken charges:
               1
     1  C   -0.267766
     2  C    0.018127
     3  C   -0.184048
     4  C   -0.180944
     5  S    0.302335
     6  C   -0.285311
     7  C    0.025445
     8  C    0.023350
     9  H    0.123218
    10  C    0.090827
    11  C   -0.112624
    12  C   -0.079349
    13  C    0.003136
    14  C    0.114646
    15  N   -0.496108
    16  S    0.577271
    17  N   -0.521277
    18  C    0.137990
    19  C   -0.040886
    20  C   -0.048931
    21  C   -0.112659
    22  C    0.161689
    23  C   -0.109532
    24  C   -0.078286
    25  H    0.109306
    26  H    0.121188
    27  N   -0.502616
    28  C    0.113683
    29  C   -0.093292
    30  C   -0.056415
    31  C   -0.089456
    32  C   -0.081607
    33  C   -0.087138
    34  H    0.116086
    35  H    0.106721
    36  C   -0.038881
    37  C   -0.073070
    38  C   -0.106616
    39  C    0.184065
    40  C   -0.101960
    41  C    0.110633
    42  O   -0.399635
    43  C   -0.112676
    44  H    0.107318
    45  H    0.124213
    46  H    0.116138
    47  H    0.116605
    48  O   -0.362816
    49  C   -0.138564
    50  H    0.137674
    51  H    0.124245
    52  H    0.122783
    53  H    0.108426
    54  H    0.109055
    55  H    0.106149
    56  H    0.114990
    57  C    0.102511
    58  C   -0.093734
    59  C   -0.048583
    60  C   -0.032629
    61  C   -0.081095
    62  C   -0.085700
    63  H    0.113491
    64  H    0.106956
    65  C   -0.103022
    66  C    0.193782
    67  C   -0.189447
    68  C    0.176578
    69  C   -0.115070
    70  C   -0.077242
    71  H    0.104449
    72  H    0.104039
    73  O   -0.364610
    74  C   -0.139781
    75  H    0.122236
    76  H    0.137796
    77  H    0.122262
    78  H    0.141274
    79  O   -0.370043
    80  C   -0.138649
    81  H    0.122281
    82  H    0.122741
    83  H    0.138356
    84  H    0.102329
    85  H    0.112790
    86  H    0.121068
    87  H    0.110159
    88  H    0.113323
    89  H    0.118408
    90  S    0.319200
    91  C   -0.304468
    92  C    0.028233
    93  H    0.116488
    94  C    0.028307
    95  C   -0.044535
    96  C   -0.061342
    97  C   -0.099123
    98  C   -0.050072
    99  C   -0.103652
   100  H    0.121649
   101  H    0.125990
   102  C    0.065880
   103  C   -0.203399
   104  C    0.018958
   105  N   -0.272877
   106  C    0.464679
   107  O   -0.357747
   108  O   -0.317436
   109  H    0.274987
   110  H    0.131057
   111  H    0.116939
   112  H    0.114905
   113  C   -0.219847
   114  H    0.119272
   115  H    0.118211
   116  H    0.120056
   117  C   -0.219680
   118  H    0.119251
   119  H    0.120073
   120  H    0.117968
 Sum of Mulliken charges =  -0.00000
 Mulliken charges with hydrogens summed into heavy atoms:
               1
     1  C   -0.267766
     2  C    0.018127
     3  C   -0.184048
     4  C   -0.180944
     5  S    0.302335
     6  C   -0.285311
     7  C    0.148664
     8  C    0.023350
    10  C    0.090827
    11  C    0.005784
    12  C    0.033973
    13  C    0.003136
    14  C    0.114646
    15  N   -0.496108
    16  S    0.577271
    17  N   -0.521277
    18  C    0.137990
    19  C   -0.040886
    20  C    0.061228
    21  C    0.008409
    22  C    0.161689
    23  C    0.011656
    24  C    0.031020
    27  N   -0.502616
    28  C    0.113683
    29  C    0.021698
    30  C    0.049734
    31  C   -0.089456
    32  C    0.025114
    33  C    0.028948
    36  C   -0.038881
    37  C    0.035985
    38  C    0.001810
    39  C    0.184065
    40  C    0.014645
    41  C    0.110633
    42  O   -0.399635
    43  C    0.234994
    48  O   -0.362816
    49  C    0.246137
    57  C    0.102511
    58  C    0.019057
    59  C    0.053746
    60  C   -0.032629
    61  C    0.025861
    62  C    0.027791
    65  C   -0.103022
    66  C    0.193782
    67  C   -0.048173
    68  C    0.176578
    69  C   -0.011030
    70  C    0.027207
    73  O   -0.364610
    74  C    0.242512
    79  O   -0.370043
    80  C    0.244729
    90  S    0.319200
    91  C   -0.304468
    92  C    0.144722
    94  C    0.028307
    95  C    0.070369
    96  C    0.055597
    97  C   -0.099123
    98  C    0.075919
    99  C    0.017997
   102  C    0.196937
   103  C   -0.203399
   104  C    0.018958
   105  N   -0.272877
   106  C    0.464679
   107  O   -0.357747
   108  O   -0.042448
   113  C    0.137692
   117  C    0.137612
 Electronic spatial extent (au):  <R**2>=         204544.2393
 Charge=             -0.0000 electrons
 Dipole moment (field-independent basis, Debye):
    X=            -14.3897    Y=             -4.1586    Z=              7.8117  Tot=             16.8932
 Quadrupole moment (field-independent basis, Debye-Ang):
   XX=           -576.8253   YY=           -401.3273   ZZ=           -445.0201
   XY=             -8.2107   XZ=             32.7233   YZ=            -17.5753
 Traceless Quadrupole moment (field-independent basis, Debye-Ang):
   XX=           -102.4344   YY=             73.0636   ZZ=             29.3708
   XY=             -8.2107   XZ=             32.7233   YZ=            -17.5753
 Octapole moment (field-independent basis, Debye-Ang**2):
  XXX=          -7101.8612  YYY=           -181.2543  ZZZ=            122.4644  XYY=           -801.2091
  XXY=           -588.9654  XXZ=           1350.7960  XZZ=            -75.3758  YZZ=            -63.7435
  YYZ=            114.8528  XYZ=            123.3161
 Hexadecapole moment (field-independent basis, Debye-Ang**3):
 XXXX=        -327998.6224 YYYY=         -31045.4655 ZZZZ=          -8790.4143 XXXY=          -5378.7631
 XXXZ=          10602.5673 YYYX=           1534.3447 YYYZ=           -715.8759 ZZZX=            929.9757
 ZZZY=           -108.2405 XXYY=         -35059.0409 XXZZ=         -42335.4300 YYZZ=          -7584.0327
 XXYZ=          -1329.7664 YYXZ=           -705.2768 ZZXY=           -398.0364
 N-N= 1.002631661289D+04 E-N=-2.993033874161D+04  KE= 4.204152535348D+03
 1\1\GINC-CN113\FOpt\RB3LYP\6-311G(d,p)\C61H46N4O6S3\R2532\04-Jun-2021\
 0\\#N B3LYP/6-311G(d,p) OPT SCRF=(Solvent=Dichloromethane)\\C61H46O6N4
 S3\\0,1\C,-7.5424337136,1.3343326914,2.6552217727\C,-8.5936758198,0.84
 40857763,1.6611585259\C,-7.9901846028,0.2709201272,0.5488827446\C,-6.5
 677826275,0.3262215292,0.7060328977\S,-5.153013204,-0.1415068148,-0.16
 53469645\C,-4.1157233968,0.4977714829,1.1305081432\C,-4.8852537165,1.0
 311718392,2.1546879897\C,-6.268163494,0.9343127891,1.9138669073\H,-4.4
 329172624,1.4669222523,3.0319652495\C,-2.6699480583,0.4115435388,1.008
 5436381\C,-2.0472332896,-0.1452445635,-0.097453821\C,-0.6458392744,-0.
 2353290439,-0.2517397067\C,0.2608722713,0.2187180649,0.6873714364\C,-0
 .325883457,0.8008668041,1.863559897\N,0.3482462573,1.2792602491,2.9132
 599148\S,-0.7494714361,1.8141770933,4.000692279\N,-2.125584599,1.45418
 44695,3.1874295356\C,-1.7714091043,0.8981813551,2.0271639985\C,1.71757
 66306,0.0994070645,0.4858263132\C,2.6209880018,1.0827724955,0.92526347
 81\C,3.9831578726,0.9723246245,0.6881074422\C,4.5082940037,-0.13113669
 64,-0.0037612882\C,3.6144546602,-1.1210270903,-0.4436574035\C,2.254638
 049,-1.005339776,-0.1984290781\H,1.5980469555,-1.7981953412,-0.5372587
 598\H,3.9902503233,-1.9860145415,-0.9752340151\N,5.8947322413,-0.24228
 48417,-0.2486231491\C,6.5334250042,-1.5129316871,-0.2264497613\C,7.468
 3425882,-1.8588820546,-1.2111375518\C,8.1050432978,-3.0930243925,-1.18
 33603268\C,7.8238923308,-4.0375205467,-0.1828890517\C,6.8834657401,-3.
 6799845505,0.7965694916\C,6.2543229221,-2.4411682098,0.7844937964\H,5.
 5489369291,-2.1872990607,1.5664244797\H,6.6609773366,-4.3714440591,1.6
 015242867\C,8.4549178871,-5.3813584738,-0.1661369143\C,7.6815773524,-6
 .5238471572,0.1125530444\C,8.2192530581,-7.7999330565,0.130355129\C,9.
 5806669221,-7.9870108212,-0.1400095029\C,10.3782292394,-6.8752874307,-
 0.4155358152\C,9.8185696958,-5.5957414132,-0.4287560209\O,10.662238458
 2,-4.5446767296,-0.7334716136\C,11.212568962,-3.8709000838,0.407270333
 5\H,11.8111298945,-4.5598552449,1.0123019741\H,11.8516602272,-3.078411
 5583,0.0196638143\H,10.4235267294,-3.4332493033,1.0260223517\H,11.4343
 119937,-6.9643552366,-0.6295101934\O,10.0291913038,-9.271659069,-0.114
 5303664\C,11.408597079,-9.5167521693,-0.3887133878\H,11.537244742,-10.
 5948973995,-0.3177104276\H,11.6790986081,-9.1837165553,-1.395419415\H,
 12.0534969682,-9.0245523608,0.3458034138\H,7.6014868567,-8.6660475395,
 0.3338190969\H,6.620443886,-6.4025549528,0.2976216606\H,8.8199724282,-
 3.3354513259,-1.9581564373\H,7.6908107943,-1.1569652543,-2.0057896171\
 C,6.6708724047,0.9201478003,-0.5250605873\C,7.9059722963,1.1191709178,
 0.1048558197\C,8.6699078113,2.2455264611,-0.1720533714\C,8.2295679273,
 3.2241986077,-1.0779441955\C,6.9855327429,3.0162020878,-1.6946464049\C
 ,6.2218439626,1.8842272191,-1.4344563636\H,5.269188064,1.7500790536,-1
 .9325992008\H,6.6049921373,3.7547972472,-2.3910153847\C,9.047551144,4.
 4145507554,-1.4260378599\C,9.7165131863,5.1982589094,-0.4596260547\C,1
 0.4652640868,6.3213643723,-0.8319683251\C,10.5600751769,6.6847470911,-
 2.178813719\C,9.9046395951,5.9262724485,-3.1518645748\C,9.1674665664,4
 .8175220858,-2.7637052139\H,8.6772259786,4.2244536021,-3.5272546648\H,
 9.99137615,6.2114869709,-4.1927105005\O,11.2692577005,7.7569325688,-2.
 6292222236\C,11.9654650168,8.5688361192,-1.6849776821\H,12.7236882099,
 7.9924551995,-1.1457000365\H,12.452654277,9.3479298261,-2.2679649205\H
 ,11.2766831494,9.029423861,-0.9698709514\H,10.9622190776,6.9084159297,
 -0.0760969474\O,9.576677902,4.8145329861,0.8405675595\C,10.189551598,5
 .589657496,1.8689269794\H,11.278639835,5.6057677786,1.763111955\H,9.80
 56876507,6.6143807779,1.8782692516\H,9.925834636,5.097648994,2.8030936
 467\H,9.6203228259,2.3723504342,0.3286127333\H,8.26951683,0.3824055739
 ,0.811209224\H,4.6502651722,1.7486365185,1.041091402\H,2.2529380026,1.
 9446960188,1.4641264706\H,-0.2749263066,-0.6644031218,-1.1745724672\H,
 -2.6536876929,-0.5283638744,-0.9099522918\S,-9.1369717271,-0.297597529
 2,-0.6047040547\C,-10.4771443511,0.245499272,0.4231413065\C,-9.9943650
 687,0.8285365034,1.588724153\H,-10.6462076924,1.2368509119,2.349025612
 9\C,-11.8551031456,0.0593856701,0.0121027726\C,-12.9205877178,0.339193
 0636,0.8966509576\C,-14.2316814823,0.1683585614,0.5039287045\C,-14.567
 5719668,-0.2937841134,-0.7898398342\C,-13.5014427426,-0.5786935353,-1.
 6724958804\C,-12.1904606423,-0.4050915548,-1.2808603508\H,-11.40509768
 72,-0.6259726616,-1.9939389359\H,-13.6963727913,-0.9354852356,-2.67391
 9859\C,-15.9649699878,-0.4355428236,-1.0966866025\C,-16.6239875724,-0.
 829969976,-2.2268808556\C,-15.9988592008,-1.2135267598,-3.4417819971\N
 ,-15.564462308,-1.5392196778,-4.4657426332\C,-18.1224166497,-0.8572654
 618,-2.1847597165\O,-18.7611264122,-0.5520856131,-1.2068321955\O,-18.7
 628061768,-1.24434333,-3.3066665804\H,-18.1479042648,-1.4643451128,-4.
 0213885122\H,-16.6409587564,-0.1826019685,-0.284736155\H,-15.02815563,
 0.3899137303,1.205567047\H,-12.7159904035,0.6828188382,1.9021040187\C,
 -7.6217834209,2.8632865078,2.8564877481\H,-7.5436878824,3.3896757222,1
 .9028997115\H,-8.5699918626,3.1373322879,3.3260857273\H,-6.8106926629,
 3.2030777788,3.5054590949\C,-7.6610143234,0.6052905485,4.0111162375\H,
 -7.6067803253,-0.4776226173,3.8810765341\H,-6.8532748932,0.913392078,4
 .679835376\H,-8.6118538113,0.8484939393,4.4923456129\\Version=ES64L-G1
 6RevB.01\State=1-A\HF=-4217.8744287\RMSD=3.262e-09\RMSF=2.586e-06\Dipo
 le=5.6653118,1.6227956,3.0731198\Quadrupole=-76.2019714,54.2865527,21.
 9154186,-5.8784835,-24.265215,13.1643509\PG=C01 [X(C61H46N4O6S3)]\\@


 SEE YOU NOW,
 YOUR BAIT OF FALSEHOOD TAKES THIS CARP OF TRUTH.
 AND THUS DO WE OF WISDOM AND OF REACH...
 BY INDIRECTIONS FIND DIRECTIONS OUT.    -- HAMLET, II, 1
 Job cpu time:       1 days  4 hours 12 minutes 27.3 seconds.
 Elapsed time:       1 days  4 hours 12 minutes 38.6 seconds.
 File lengths (MBytes):  RWF=   4021 Int=      0 D2E=      0 Chk=    202 Scr=      1
 Normal termination of Gaussian 16 at Fri Jun  4 14:56:33 2021.
