 Entering Gaussian System, Link 0=g16
 Input=mex.com
 Output=mex.out
 Initial command:
 /usr/local/apps/gaussian/g16-b01-avx2//g16/l1.exe "/tmp/r2532.887729.maple/Gau-26252.inp" -scrdir="/tmp/r2532.887729.maple/"
 Entering Link 1 = /usr/local/apps/gaussian/g16-b01-avx2//g16/l1.exe PID=     26253.
  
 Copyright (c) 1988-2017, Gaussian, Inc.  All Rights Reserved.
  
 This is part of the Gaussian(R) 16 program.  It is based on
 the Gaussian(R) 09 system (copyright 2009, Gaussian, Inc.),
 the Gaussian(R) 03 system (copyright 2003, Gaussian, Inc.),
 the Gaussian(R) 98 system (copyright 1998, Gaussian, Inc.),
 the Gaussian(R) 94 system (copyright 1995, Gaussian, Inc.),
 the Gaussian 92(TM) system (copyright 1992, Gaussian, Inc.),
 the Gaussian 90(TM) system (copyright 1990, Gaussian, Inc.),
 the Gaussian 88(TM) system (copyright 1988, Gaussian, Inc.),
 the Gaussian 86(TM) system (copyright 1986, Carnegie Mellon
 University), and the Gaussian 82(TM) system (copyright 1983,
 Carnegie Mellon University). Gaussian is a federally registered
 trademark of Gaussian, Inc.
  
 This software contains proprietary and confidential information,
 including trade secrets, belonging to Gaussian, Inc.
  
 This software is provided under written license and may be
 used, copied, transmitted, or stored only in accord with that
 written license.
  
 The following legend is applicable only to US Government
 contracts under FAR:
  
                    RESTRICTED RIGHTS LEGEND
  
 Use, reproduction and disclosure by the US Government is
 subject to restrictions as set forth in subparagraphs (a)
 and (c) of the Commercial Computer Software - Restricted
 Rights clause in FAR 52.227-19.
  
 Gaussian, Inc.
 340 Quinnipiac St., Bldg. 40, Wallingford CT 06492
  
  
 ---------------------------------------------------------------
 Warning -- This program may not be used in any manner that
 competes with the business of Gaussian, Inc. or will provide
 assistance to any competitor of Gaussian, Inc.  The licensee
 of this program is prohibited from giving any competitor of
 Gaussian, Inc. access to this program.  By using this program,
 the user acknowledges that Gaussian, Inc. is engaged in the
 business of creating and licensing software in the field of
 computational chemistry and represents and warrants to the
 licensee that it is not a competitor of Gaussian, Inc. and that
 it will not use this program in any manner prohibited above.
 ---------------------------------------------------------------
  

 Cite this work as:
 Gaussian 16, Revision B.01,
 M. J. Frisch, G. W. Trucks, H. B. Schlegel, G. E. Scuseria, 
 M. A. Robb, J. R. Cheeseman, G. Scalmani, V. Barone, 
 G. A. Petersson, H. Nakatsuji, X. Li, M. Caricato, A. V. Marenich, 
 J. Bloino, B. G. Janesko, R. Gomperts, B. Mennucci, H. P. Hratchian, 
 J. V. Ortiz, A. F. Izmaylov, J. L. Sonnenberg, D. Williams-Young, 
 F. Ding, F. Lipparini, F. Egidi, J. Goings, B. Peng, A. Petrone, 
 T. Henderson, D. Ranasinghe, V. G. Zakrzewski, J. Gao, N. Rega, 
 G. Zheng, W. Liang, M. Hada, M. Ehara, K. Toyota, R. Fukuda, 
 J. Hasegawa, M. Ishida, T. Nakajima, Y. Honda, O. Kitao, H. Nakai, 
 T. Vreven, K. Throssell, J. A. Montgomery, Jr., J. E. Peralta, 
 F. Ogliaro, M. J. Bearpark, J. J. Heyd, E. N. Brothers, K. N. Kudin, 
 V. N. Staroverov, T. A. Keith, R. Kobayashi, J. Normand, 
 K. Raghavachari, A. P. Rendell, J. C. Burant, S. S. Iyengar, 
 J. Tomasi, M. Cossi, J. M. Millam, M. Klene, C. Adamo, R. Cammi, 
 J. W. Ochterski, R. L. Martin, K. Morokuma, O. Farkas, 
 J. B. Foresman, and D. J. Fox, Gaussian, Inc., Wallingford CT, 2016.
 
 ******************************************
 Gaussian 16:  ES64L-G16RevB.01 20-Dec-2017
                 9-Jul-2021 
 ******************************************
 %mem=8gb
 --------------------------
 #N PBE1PBE/6-311G(d,p) OPT
 --------------------------
 1/18=20,19=15,26=3,38=1/1,3;
 2/9=110,12=2,17=6,18=5,40=1/2;
 3/5=4,6=6,7=101,11=2,25=1,30=1,71=1,74=-13/1,2,3;
 4//1;
 5/5=2,38=5/2;
 6/7=2,8=2,9=2,10=2,28=1/1;
 7//1,2,3,16;
 1/18=20,19=15,26=3/3(2);
 2/9=110/2;
 99//99;
 2/9=110/2;
 3/5=4,6=6,7=101,11=2,25=1,30=1,71=1,74=-13/1,2,3;
 4/5=5,16=3,69=1/1;
 5/5=2,38=5/2;
 7//1,2,3,16;
 1/18=20,19=15,26=3/3(-5);
 2/9=110/2;
 6/7=2,8=2,9=2,10=2,19=2,28=1/1;
 99/9=1/99;
 ------------
 C61H46O6N4S3
 ------------
 Symbolic Z-matrix:
 Charge =  0 Multiplicity = 1
 6                    -7.54656   1.28031   2.6831 
 6                    -8.59284   0.80025   1.67846 
 6                    -7.98235   0.25077   0.55953 
 6                    -6.56003   0.31217   0.72128 
 16                   -5.13957  -0.12657  -0.15444 
 6                    -4.11068   0.4976    1.15417 
 6                    -4.88606   1.00911   2.18405 
 6                    -6.26721   0.90307   1.93847 
 1                    -4.43472   1.43657   3.06607 
 6                    -2.66474   0.42197   1.03683 
 6                    -2.033    -0.18067  -0.03872 
 6                    -0.63086  -0.25993  -0.18826 
 6                     0.27148   0.24855   0.72708 
 6                    -0.32531   0.88604   1.87025 
 7                     0.34172   1.43228   2.88941 
 16                   -0.76461   2.00935   3.9457 
 7                    -2.13753   1.5848    3.1562 
 6                    -1.7736    0.97165   2.02909 
 6                     1.72791   0.12979   0.53474 
 6                     2.6277    1.12709   0.94941 
 6                     3.98947   1.01524   0.71634 
 6                     4.52046  -0.10516   0.05667 
 6                     3.63088  -1.11158  -0.35387 
 6                     2.27135  -0.99257  -0.11446 
 1                     1.61859  -1.79985  -0.426 
 1                     4.01251  -1.99078  -0.85704 
 7                     5.90597  -0.21808  -0.18318 
 6                     6.54171  -1.49099  -0.1626 
 6                     7.45228  -1.84959  -1.16461 
 6                     8.08     -3.08788  -1.14278 
 6                     7.81446  -4.02236  -0.12908 
 6                     6.90281  -3.64961   0.87124 
 6                     6.28186  -2.40695   0.86377 
 1                     5.59547  -2.13832   1.65775 
 1                     6.69846  -4.33368   1.68738 
 6                     8.43148  -5.37235  -0.12359 
 6                     7.65544  -6.505     0.18419 
 6                     8.17534  -7.78766   0.17935 
 6                     9.52092  -7.9917   -0.14652 
 6                     10.32216  -6.89079  -0.44919 
 6                     9.78101  -5.60366  -0.43655 
 8                     10.63086  -4.56749  -0.77251 
 6                     11.17461  -3.85486   0.34196 
 1                     11.76885  -4.52187   0.97704 
 1                     11.81864  -3.07957  -0.07252 
 1                     10.38578  -3.39024   0.94155 
 1                     11.36699  -6.98996  -0.7089 
 8                     9.95073  -9.28402  -0.14462 
 6                     11.3039  -9.54734  -0.48928 
 1                     11.41934  -10.62851  -0.43474 
 1                     11.53197  -9.20921  -1.50608 
 1                     11.99721  -9.07373   0.21479 
 1                     7.55721  -8.6482    0.40295 
 1                     6.603    -6.36838   0.40502 
 1                     8.7765   -3.34401  -1.92978 
 1                     7.6608   -1.15274  -1.96744 
 6                     6.68419   0.93876  -0.47747 
 6                     7.92403   1.13789   0.14191 
 6                     8.69214   2.25591  -0.15308 
 6                     8.25176   3.22435  -1.06829 
 6                     7.00285   3.01772  -1.67325 
 6                     6.23404   1.8943   -1.39461 
 1                     5.27614   1.75911  -1.88237 
 1                     6.62294   3.75359  -2.37299 
 6                     9.07436   4.40407  -1.43832 
 6                     9.74153   5.20481  -0.48801 
 6                     10.49042   6.32069  -0.87975 
 6                     10.58911   6.65654  -2.23319 
 6                     9.93879   5.87832  -3.19152 
 6                     9.20075   4.77855  -2.78304 
 1                     8.71441   4.16688  -3.53423 
 1                     10.03233   6.14434  -4.2365 
 8                     11.29944   7.72032  -2.7049 
 6                     11.98548   8.55072  -1.78071 
 1                     12.74533   7.9914   -1.22289 
 1                     12.4738   9.31926  -2.37762 
 1                     11.29419   9.02763  -1.07644 
 1                     10.98609   6.92239  -0.13449 
 8                     9.60272   4.84075   0.8206 
 6                     10.18347   5.64735   1.83329 
 1                     11.27563   5.6807    1.74829 
 1                     9.78476   6.66773   1.81342 
 1                     9.91281   5.17601   2.77681 
 1                     9.6461    2.38607   0.33983 
 1                     8.28588   0.40521   0.8534 
 1                     4.65463   1.80255   1.04771 
 1                     2.25591   1.99886   1.46887 
 1                    -0.2525   -0.72702  -1.0894 
 1                    -2.636    -0.61438  -0.82843 
 16                   -9.12379  -0.30554  -0.60542 
 6                    -10.46958   0.21283   0.42408 
 6                    -9.994     0.77727   1.5999 
 1                    -10.6534   1.17449   2.35995 
 6                    -11.84609   0.0265    0.00297 
 6                    -12.91105   0.18829   0.91453 
 6                    -14.2207   0.01977   0.51357 
 6                    -14.55361  -0.32748  -0.81418 
 6                    -13.48823  -0.49537  -1.72485 
 6                    -12.17879  -0.32003  -1.32517 
 1                    -11.39185  -0.44104  -2.06047 
 1                    -13.68379  -0.75868  -2.7551 
 6                    -15.95197  -0.48436  -1.12877 
 6                    -16.59811  -0.8011   -2.28498 
 6                    -15.96947  -1.06519  -3.53045 
 7                    -15.5442  -1.29491  -4.58391 
 6                    -18.10357  -0.87839  -2.24275 
 8                    -18.73802  -0.67251  -1.24304 
 8                    -18.72331  -1.19529  -3.39914 
 1                    -18.08775  -1.33222  -4.11588 
 1                    -16.63723  -0.32316  -0.30036 
 1                    -15.01849   0.14807   1.23717 
 1                    -12.7047   0.43079   1.94917 
 6                    -7.63727   2.80425   2.9116 
 1                    -7.55861   3.34721   1.96768 
 1                    -8.58932   3.06642   3.38145 
 1                    -6.83151   3.14023   3.56951 
 6                    -7.66091   0.52423   4.0242 
 1                    -7.60261  -0.55531   3.87171 
 1                    -6.85302   0.81979   4.69878 
 1                    -8.61149   0.75222   4.51444 
 

 GradGradGradGradGradGradGradGradGradGradGradGradGradGradGradGradGradGrad
 Berny optimization.
 Initialization pass.
                           ----------------------------
                           !    Initial Parameters    !
                           ! (Angstroms and Degrees)  !
 --------------------------                            --------------------------
 ! Name  Definition              Value          Derivative Info.                !
 --------------------------------------------------------------------------------
 ! R1    R(1,2)                  1.5279         estimate D2E/DX2                !
 ! R2    R(1,8)                  1.5276         estimate D2E/DX2                !
 ! R3    R(1,113)                1.5436         estimate D2E/DX2                !
 ! R4    R(1,117)                1.5438         estimate D2E/DX2                !
 ! R5    R(2,3)                  1.388          estimate D2E/DX2                !
 ! R6    R(2,92)                 1.4036         estimate D2E/DX2                !
 ! R7    R(3,4)                  1.4328         estimate D2E/DX2                !
 ! R8    R(3,90)                 1.7232         estimate D2E/DX2                !
 ! R9    R(4,5)                  1.7254         estimate D2E/DX2                !
 ! R10   R(4,8)                  1.3844         estimate D2E/DX2                !
 ! R11   R(5,6)                  1.7778         estimate D2E/DX2                !
 ! R12   R(6,7)                  1.3869         estimate D2E/DX2                !
 ! R13   R(6,10)                 1.4527         estimate D2E/DX2                !
 ! R14   R(7,8)                  1.4068         estimate D2E/DX2                !
 ! R15   R(7,9)                  1.0791         estimate D2E/DX2                !
 ! R16   R(10,11)                1.3853         estimate D2E/DX2                !
 ! R17   R(10,18)                1.4425         estimate D2E/DX2                !
 ! R18   R(11,12)                1.4123         estimate D2E/DX2                !
 ! R19   R(11,89)                1.0841         estimate D2E/DX2                !
 ! R20   R(12,13)                1.3823         estimate D2E/DX2                !
 ! R21   R(12,88)                1.0832         estimate D2E/DX2                !
 ! R22   R(13,14)                1.4385         estimate D2E/DX2                !
 ! R23   R(13,19)                1.4739         estimate D2E/DX2                !
 ! R24   R(14,15)                1.3349         estimate D2E/DX2                !
 ! R25   R(14,18)                1.4595         estimate D2E/DX2                !
 ! R26   R(15,16)                1.6348         estimate D2E/DX2                !
 ! R27   R(16,17)                1.6397         estimate D2E/DX2                !
 ! R28   R(17,18)                1.3337         estimate D2E/DX2                !
 ! R29   R(19,20)                1.4058         estimate D2E/DX2                !
 ! R30   R(19,24)                1.4059         estimate D2E/DX2                !
 ! R31   R(20,21)                1.3861         estimate D2E/DX2                !
 ! R32   R(20,87)                1.0808         estimate D2E/DX2                !
 ! R33   R(21,22)                1.4044         estimate D2E/DX2                !
 ! R34   R(21,86)                1.0826         estimate D2E/DX2                !
 ! R35   R(22,23)                1.4046         estimate D2E/DX2                !
 ! R36   R(22,27)                1.4106         estimate D2E/DX2                !
 ! R37   R(23,24)                1.3856         estimate D2E/DX2                !
 ! R38   R(23,26)                1.0825         estimate D2E/DX2                !
 ! R39   R(24,25)                1.0839         estimate D2E/DX2                !
 ! R40   R(27,28)                1.423          estimate D2E/DX2                !
 ! R41   R(27,57)                1.425          estimate D2E/DX2                !
 ! R42   R(28,29)                1.4006         estimate D2E/DX2                !
 ! R43   R(28,33)                1.4            estimate D2E/DX2                !
 ! R44   R(29,30)                1.3885         estimate D2E/DX2                !
 ! R45   R(29,56)                1.0833         estimate D2E/DX2                !
 ! R46   R(30,31)                1.404          estimate D2E/DX2                !
 ! R47   R(30,55)                1.0817         estimate D2E/DX2                !
 ! R48   R(31,32)                1.4038         estimate D2E/DX2                !
 ! R49   R(31,36)                1.4843         estimate D2E/DX2                !
 ! R50   R(32,33)                1.3892         estimate D2E/DX2                !
 ! R51   R(32,35)                1.0843         estimate D2E/DX2                !
 ! R52   R(33,34)                1.0834         estimate D2E/DX2                !
 ! R53   R(36,37)                1.4071         estimate D2E/DX2                !
 ! R54   R(36,41)                1.4045         estimate D2E/DX2                !
 ! R55   R(37,38)                1.384          estimate D2E/DX2                !
 ! R56   R(37,54)                1.084          estimate D2E/DX2                !
 ! R57   R(38,39)                1.3994         estimate D2E/DX2                !
 ! R58   R(38,53)                1.0829         estimate D2E/DX2                !
 ! R59   R(39,40)                1.3948         estimate D2E/DX2                !
 ! R60   R(39,48)                1.3619         estimate D2E/DX2                !
 ! R61   R(40,41)                1.3963         estimate D2E/DX2                !
 ! R62   R(40,47)                1.0812         estimate D2E/DX2                !
 ! R63   R(41,42)                1.3816         estimate D2E/DX2                !
 ! R64   R(42,43)                1.4302         estimate D2E/DX2                !
 ! R65   R(43,44)                1.0961         estimate D2E/DX2                !
 ! R66   R(43,45)                1.0898         estimate D2E/DX2                !
 ! R67   R(43,46)                1.0944         estimate D2E/DX2                !
 ! R68   R(48,49)                1.421          estimate D2E/DX2                !
 ! R69   R(49,50)                1.0887         estimate D2E/DX2                !
 ! R70   R(49,51)                1.0955         estimate D2E/DX2                !
 ! R71   R(49,52)                1.0958         estimate D2E/DX2                !
 ! R72   R(57,58)                1.4002         estimate D2E/DX2                !
 ! R73   R(57,62)                1.3989         estimate D2E/DX2                !
 ! R74   R(58,59)                1.3882         estimate D2E/DX2                !
 ! R75   R(58,85)                1.0835         estimate D2E/DX2                !
 ! R76   R(59,60)                1.4034         estimate D2E/DX2                !
 ! R77   R(59,84)                1.0816         estimate D2E/DX2                !
 ! R78   R(60,61)                1.403          estimate D2E/DX2                !
 ! R79   R(60,65)                1.485          estimate D2E/DX2                !
 ! R80   R(61,62)                1.3895         estimate D2E/DX2                !
 ! R81   R(61,64)                1.0842         estimate D2E/DX2                !
 ! R82   R(62,63)                1.0834         estimate D2E/DX2                !
 ! R83   R(65,66)                1.4105         estimate D2E/DX2                !
 ! R84   R(65,70)                1.4016         estimate D2E/DX2                !
 ! R85   R(66,67)                1.3998         estimate D2E/DX2                !
 ! R86   R(66,79)                1.3654         estimate D2E/DX2                !
 ! R87   R(67,68)                1.398          estimate D2E/DX2                !
 ! R88   R(67,78)                1.0785         estimate D2E/DX2                !
 ! R89   R(68,69)                1.3953         estimate D2E/DX2                !
 ! R90   R(68,73)                1.3633         estimate D2E/DX2                !
 ! R91   R(69,70)                1.386          estimate D2E/DX2                !
 ! R92   R(69,72)                1.0824         estimate D2E/DX2                !
 ! R93   R(70,71)                1.084          estimate D2E/DX2                !
 ! R94   R(73,74)                1.4193         estimate D2E/DX2                !
 ! R95   R(74,75)                1.0961         estimate D2E/DX2                !
 ! R96   R(74,76)                1.0888         estimate D2E/DX2                !
 ! R97   R(74,77)                1.096          estimate D2E/DX2                !
 ! R98   R(79,80)                1.419          estimate D2E/DX2                !
 ! R99   R(80,81)                1.096          estimate D2E/DX2                !
 ! R100  R(80,82)                1.0957         estimate D2E/DX2                !
 ! R101  R(80,83)                1.0889         estimate D2E/DX2                !
 ! R102  R(90,91)                1.7719         estimate D2E/DX2                !
 ! R103  R(91,92)                1.3883         estimate D2E/DX2                !
 ! R104  R(91,94)                1.4515         estimate D2E/DX2                !
 ! R105  R(92,93)                1.0818         estimate D2E/DX2                !
 ! R106  R(94,95)                1.4111         estimate D2E/DX2                !
 ! R107  R(94,99)                1.4123         estimate D2E/DX2                !
 ! R108  R(95,96)                1.38           estimate D2E/DX2                !
 ! R109  R(95,112)               1.0825         estimate D2E/DX2                !
 ! R110  R(96,97)                1.4122         estimate D2E/DX2                !
 ! R111  R(96,111)               1.0847         estimate D2E/DX2                !
 ! R112  R(97,98)                1.4116         estimate D2E/DX2                !
 ! R113  R(97,102)               1.4419         estimate D2E/DX2                !
 ! R114  R(98,99)                1.3803         estimate D2E/DX2                !
 ! R115  R(98,101)               1.0812         estimate D2E/DX2                !
 ! R116  R(99,100)               1.0838         estimate D2E/DX2                !
 ! R117  R(102,103)              1.3619         estimate D2E/DX2                !
 ! R118  R(102,110)              1.0871         estimate D2E/DX2                !
 ! R119  R(103,104)              1.4199         estimate D2E/DX2                !
 ! R120  R(103,106)              1.508          estimate D2E/DX2                !
 ! R121  R(104,105)              1.1591         estimate D2E/DX2                !
 ! R122  R(106,107)              1.2018         estimate D2E/DX2                !
 ! R123  R(106,108)              1.3497         estimate D2E/DX2                !
 ! R124  R(108,109)              0.9677         estimate D2E/DX2                !
 ! R125  R(113,114)              1.0918         estimate D2E/DX2                !
 ! R126  R(113,115)              1.0936         estimate D2E/DX2                !
 ! R127  R(113,116)              1.0931         estimate D2E/DX2                !
 ! R128  R(117,118)              1.0918         estimate D2E/DX2                !
 ! R129  R(117,119)              1.0932         estimate D2E/DX2                !
 ! R130  R(117,120)              1.0936         estimate D2E/DX2                !
 ! A1    A(2,1,8)              100.102          estimate D2E/DX2                !
 ! A2    A(2,1,113)            111.548          estimate D2E/DX2                !
 ! A3    A(2,1,117)            111.5061         estimate D2E/DX2                !
 ! A4    A(8,1,113)            111.4182         estimate D2E/DX2                !
 ! A5    A(8,1,117)            111.3793         estimate D2E/DX2                !
 ! A6    A(113,1,117)          110.5214         estimate D2E/DX2                !
 ! A7    A(1,2,3)              110.6861         estimate D2E/DX2                !
 ! A8    A(1,2,92)             136.5162         estimate D2E/DX2                !
 ! A9    A(3,2,92)             112.7975         estimate D2E/DX2                !
 ! A10   A(2,3,4)              109.1863         estimate D2E/DX2                !
 ! A11   A(2,3,90)             112.4223         estimate D2E/DX2                !
 ! A12   A(4,3,90)             138.391          estimate D2E/DX2                !
 ! A13   A(3,4,5)              138.5072         estimate D2E/DX2                !
 ! A14   A(3,4,8)              109.118          estimate D2E/DX2                !
 ! A15   A(5,4,8)              112.3743         estimate D2E/DX2                !
 ! A16   A(4,5,6)               90.7786         estimate D2E/DX2                !
 ! A17   A(5,6,7)              110.6412         estimate D2E/DX2                !
 ! A18   A(5,6,10)             119.8895         estimate D2E/DX2                !
 ! A19   A(7,6,10)             129.4693         estimate D2E/DX2                !
 ! A20   A(6,7,8)              113.0448         estimate D2E/DX2                !
 ! A21   A(6,7,9)              121.2806         estimate D2E/DX2                !
 ! A22   A(8,7,9)              125.6747         estimate D2E/DX2                !
 ! A23   A(1,8,4)              110.9072         estimate D2E/DX2                !
 ! A24   A(1,8,7)              135.932          estimate D2E/DX2                !
 ! A25   A(4,8,7)              113.1608         estimate D2E/DX2                !
 ! A26   A(6,10,11)            122.6341         estimate D2E/DX2                !
 ! A27   A(6,10,18)            122.6506         estimate D2E/DX2                !
 ! A28   A(11,10,18)           114.7151         estimate D2E/DX2                !
 ! A29   A(10,11,12)           124.0115         estimate D2E/DX2                !
 ! A30   A(10,11,89)           119.0739         estimate D2E/DX2                !
 ! A31   A(12,11,89)           116.9115         estimate D2E/DX2                !
 ! A32   A(11,12,13)           123.8718         estimate D2E/DX2                !
 ! A33   A(11,12,88)           117.3263         estimate D2E/DX2                !
 ! A34   A(13,12,88)           118.7835         estimate D2E/DX2                !
 ! A35   A(12,13,14)           114.7366         estimate D2E/DX2                !
 ! A36   A(12,13,19)           121.9392         estimate D2E/DX2                !
 ! A37   A(14,13,19)           123.3231         estimate D2E/DX2                !
 ! A38   A(13,14,15)           125.5036         estimate D2E/DX2                !
 ! A39   A(13,14,18)           121.6112         estimate D2E/DX2                !
 ! A40   A(15,14,18)           112.8767         estimate D2E/DX2                !
 ! A41   A(14,15,16)           107.4324         estimate D2E/DX2                !
 ! A42   A(15,16,17)            99.4471         estimate D2E/DX2                !
 ! A43   A(16,17,18)           107.3055         estimate D2E/DX2                !
 ! A44   A(10,18,14)           121.0521         estimate D2E/DX2                !
 ! A45   A(10,18,17)           126.0095         estimate D2E/DX2                !
 ! A46   A(14,18,17)           112.9372         estimate D2E/DX2                !
 ! A47   A(13,19,20)           122.4691         estimate D2E/DX2                !
 ! A48   A(13,19,24)           120.4354         estimate D2E/DX2                !
 ! A49   A(20,19,24)           117.0749         estimate D2E/DX2                !
 ! A50   A(19,20,21)           121.4664         estimate D2E/DX2                !
 ! A51   A(19,20,87)           119.5929         estimate D2E/DX2                !
 ! A52   A(21,20,87)           118.9389         estimate D2E/DX2                !
 ! A53   A(20,21,22)           120.9843         estimate D2E/DX2                !
 ! A54   A(20,21,86)           119.5682         estimate D2E/DX2                !
 ! A55   A(22,21,86)           119.4475         estimate D2E/DX2                !
 ! A56   A(21,22,23)           117.9993         estimate D2E/DX2                !
 ! A57   A(21,22,27)           121.0019         estimate D2E/DX2                !
 ! A58   A(23,22,27)           120.9985         estimate D2E/DX2                !
 ! A59   A(22,23,24)           120.6239         estimate D2E/DX2                !
 ! A60   A(22,23,26)           119.6394         estimate D2E/DX2                !
 ! A61   A(24,23,26)           119.7359         estimate D2E/DX2                !
 ! A62   A(19,24,23)           121.8468         estimate D2E/DX2                !
 ! A63   A(19,24,25)           119.6382         estimate D2E/DX2                !
 ! A64   A(23,24,25)           118.5077         estimate D2E/DX2                !
 ! A65   A(22,27,28)           120.5275         estimate D2E/DX2                !
 ! A66   A(22,27,57)           120.4335         estimate D2E/DX2                !
 ! A67   A(28,27,57)           119.0259         estimate D2E/DX2                !
 ! A68   A(27,28,29)           120.6061         estimate D2E/DX2                !
 ! A69   A(27,28,33)           120.86           estimate D2E/DX2                !
 ! A70   A(29,28,33)           118.5313         estimate D2E/DX2                !
 ! A71   A(28,29,30)           120.7307         estimate D2E/DX2                !
 ! A72   A(28,29,56)           119.3807         estimate D2E/DX2                !
 ! A73   A(30,29,56)           119.8872         estimate D2E/DX2                !
 ! A74   A(29,30,31)           121.2933         estimate D2E/DX2                !
 ! A75   A(29,30,55)           119.3953         estimate D2E/DX2                !
 ! A76   A(31,30,55)           119.3054         estimate D2E/DX2                !
 ! A77   A(30,31,32)           117.4229         estimate D2E/DX2                !
 ! A78   A(30,31,36)           121.9637         estimate D2E/DX2                !
 ! A79   A(32,31,36)           120.5851         estimate D2E/DX2                !
 ! A80   A(31,32,33)           121.5991         estimate D2E/DX2                !
 ! A81   A(31,32,35)           119.4191         estimate D2E/DX2                !
 ! A82   A(33,32,35)           118.9556         estimate D2E/DX2                !
 ! A83   A(28,33,32)           120.4132         estimate D2E/DX2                !
 ! A84   A(28,33,34)           119.5157         estimate D2E/DX2                !
 ! A85   A(32,33,34)           120.0703         estimate D2E/DX2                !
 ! A86   A(31,36,37)           120.2425         estimate D2E/DX2                !
 ! A87   A(31,36,41)           123.2556         estimate D2E/DX2                !
 ! A88   A(37,36,41)           116.4941         estimate D2E/DX2                !
 ! A89   A(36,37,38)           122.5523         estimate D2E/DX2                !
 ! A90   A(36,37,54)           118.5925         estimate D2E/DX2                !
 ! A91   A(38,37,54)           118.8303         estimate D2E/DX2                !
 ! A92   A(37,38,39)           119.8097         estimate D2E/DX2                !
 ! A93   A(37,38,53)           121.422          estimate D2E/DX2                !
 ! A94   A(39,38,53)           118.7556         estimate D2E/DX2                !
 ! A95   A(38,39,40)           119.1949         estimate D2E/DX2                !
 ! A96   A(38,39,48)           116.1977         estimate D2E/DX2                !
 ! A97   A(40,39,48)           124.6072         estimate D2E/DX2                !
 ! A98   A(39,40,41)           120.1958         estimate D2E/DX2                !
 ! A99   A(39,40,47)           122.3341         estimate D2E/DX2                !
 ! A100  A(41,40,47)           117.4674         estimate D2E/DX2                !
 ! A101  A(36,41,40)           121.7497         estimate D2E/DX2                !
 ! A102  A(36,41,42)           121.4474         estimate D2E/DX2                !
 ! A103  A(40,41,42)           116.7913         estimate D2E/DX2                !
 ! A104  A(41,42,43)           114.713          estimate D2E/DX2                !
 ! A105  A(42,43,44)           110.7561         estimate D2E/DX2                !
 ! A106  A(42,43,45)           106.4268         estimate D2E/DX2                !
 ! A107  A(42,43,46)           111.3729         estimate D2E/DX2                !
 ! A108  A(44,43,45)           109.4449         estimate D2E/DX2                !
 ! A109  A(44,43,46)           109.372          estimate D2E/DX2                !
 ! A110  A(45,43,46)           109.4097         estimate D2E/DX2                !
 ! A111  A(39,48,49)           118.4264         estimate D2E/DX2                !
 ! A112  A(48,49,50)           105.8343         estimate D2E/DX2                !
 ! A113  A(48,49,51)           111.4791         estimate D2E/DX2                !
 ! A114  A(48,49,52)           111.5045         estimate D2E/DX2                !
 ! A115  A(50,49,51)           109.3258         estimate D2E/DX2                !
 ! A116  A(50,49,52)           109.2662         estimate D2E/DX2                !
 ! A117  A(51,49,52)           109.3435         estimate D2E/DX2                !
 ! A118  A(27,57,58)           120.5104         estimate D2E/DX2                !
 ! A119  A(27,57,62)           120.9442         estimate D2E/DX2                !
 ! A120  A(58,57,62)           118.544          estimate D2E/DX2                !
 ! A121  A(57,58,59)           120.6969         estimate D2E/DX2                !
 ! A122  A(57,58,85)           119.3428         estimate D2E/DX2                !
 ! A123  A(59,58,85)           119.9591         estimate D2E/DX2                !
 ! A124  A(58,59,60)           121.3826         estimate D2E/DX2                !
 ! A125  A(58,59,84)           119.2147         estimate D2E/DX2                !
 ! A126  A(60,59,84)           119.4007         estimate D2E/DX2                !
 ! A127  A(59,60,61)           117.3168         estimate D2E/DX2                !
 ! A128  A(59,60,65)           122.4721         estimate D2E/DX2                !
 ! A129  A(61,60,65)           120.1741         estimate D2E/DX2                !
 ! A130  A(60,61,62)           121.676          estimate D2E/DX2                !
 ! A131  A(60,61,64)           119.3575         estimate D2E/DX2                !
 ! A132  A(62,61,64)           118.9659         estimate D2E/DX2                !
 ! A133  A(57,62,61)           120.3769         estimate D2E/DX2                !
 ! A134  A(57,62,63)           119.6339         estimate D2E/DX2                !
 ! A135  A(61,62,63)           119.987          estimate D2E/DX2                !
 ! A136  A(60,65,66)           123.0334         estimate D2E/DX2                !
 ! A137  A(60,65,70)           120.0841         estimate D2E/DX2                !
 ! A138  A(66,65,70)           116.8768         estimate D2E/DX2                !
 ! A139  A(65,66,67)           121.1359         estimate D2E/DX2                !
 ! A140  A(65,66,79)           116.5051         estimate D2E/DX2                !
 ! A141  A(67,66,79)           122.3549         estimate D2E/DX2                !
 ! A142  A(66,67,68)           120.0142         estimate D2E/DX2                !
 ! A143  A(66,67,78)           119.8175         estimate D2E/DX2                !
 ! A144  A(68,67,78)           120.1676         estimate D2E/DX2                !
 ! A145  A(67,68,69)           119.8706         estimate D2E/DX2                !
 ! A146  A(67,68,73)           124.0013         estimate D2E/DX2                !
 ! A147  A(69,68,73)           116.1279         estimate D2E/DX2                !
 ! A148  A(68,69,70)           119.229          estimate D2E/DX2                !
 ! A149  A(68,69,72)           119.0607         estimate D2E/DX2                !
 ! A150  A(70,69,72)           121.7075         estimate D2E/DX2                !
 ! A151  A(65,70,69)           122.8734         estimate D2E/DX2                !
 ! A152  A(65,70,71)           118.272          estimate D2E/DX2                !
 ! A153  A(69,70,71)           118.8433         estimate D2E/DX2                !
 ! A154  A(68,73,74)           118.8857         estimate D2E/DX2                !
 ! A155  A(73,74,75)           111.5883         estimate D2E/DX2                !
 ! A156  A(73,74,76)           105.8306         estimate D2E/DX2                !
 ! A157  A(73,74,77)           111.6003         estimate D2E/DX2                !
 ! A158  A(75,74,76)           109.1649         estimate D2E/DX2                !
 ! A159  A(75,74,77)           109.4066         estimate D2E/DX2                !
 ! A160  A(76,74,77)           109.1481         estimate D2E/DX2                !
 ! A161  A(66,79,80)           119.3953         estimate D2E/DX2                !
 ! A162  A(79,80,81)           111.7042         estimate D2E/DX2                !
 ! A163  A(79,80,82)           111.5615         estimate D2E/DX2                !
 ! A164  A(79,80,83)           105.701          estimate D2E/DX2                !
 ! A165  A(81,80,82)           109.4439         estimate D2E/DX2                !
 ! A166  A(81,80,83)           109.1523         estimate D2E/DX2                !
 ! A167  A(82,80,83)           109.1697         estimate D2E/DX2                !
 ! A168  A(3,90,91)             90.9093         estimate D2E/DX2                !
 ! A169  A(90,91,92)           110.5397         estimate D2E/DX2                !
 ! A170  A(90,91,94)           120.941          estimate D2E/DX2                !
 ! A171  A(92,91,94)           128.5193         estimate D2E/DX2                !
 ! A172  A(2,92,91)            113.3309         estimate D2E/DX2                !
 ! A173  A(2,92,93)            124.2752         estimate D2E/DX2                !
 ! A174  A(91,92,93)           122.3814         estimate D2E/DX2                !
 ! A175  A(91,94,95)           120.9022         estimate D2E/DX2                !
 ! A176  A(91,94,99)           121.8515         estimate D2E/DX2                !
 ! A177  A(95,94,99)           117.2463         estimate D2E/DX2                !
 ! A178  A(94,95,96)           120.9663         estimate D2E/DX2                !
 ! A179  A(94,95,112)          119.9493         estimate D2E/DX2                !
 ! A180  A(96,95,112)          119.0753         estimate D2E/DX2                !
 ! A181  A(95,96,97)           121.7981         estimate D2E/DX2                !
 ! A182  A(95,96,111)          119.3241         estimate D2E/DX2                !
 ! A183  A(97,96,111)          118.8756         estimate D2E/DX2                !
 ! A184  A(96,97,98)           117.2506         estimate D2E/DX2                !
 ! A185  A(96,97,102)          117.4201         estimate D2E/DX2                !
 ! A186  A(98,97,102)          125.3291         estimate D2E/DX2                !
 ! A187  A(97,98,99)           120.9371         estimate D2E/DX2                !
 ! A188  A(97,98,101)          120.4769         estimate D2E/DX2                !
 ! A189  A(99,98,101)          118.5847         estimate D2E/DX2                !
 ! A190  A(94,99,98)           121.8            estimate D2E/DX2                !
 ! A191  A(94,99,100)          119.6272         estimate D2E/DX2                !
 ! A192  A(98,99,100)          118.568          estimate D2E/DX2                !
 ! A193  A(97,102,103)         132.12           estimate D2E/DX2                !
 ! A194  A(97,102,110)         115.3998         estimate D2E/DX2                !
 ! A195  A(103,102,110)        112.4802         estimate D2E/DX2                !
 ! A196  A(102,103,104)        125.3026         estimate D2E/DX2                !
 ! A197  A(102,103,106)        117.5031         estimate D2E/DX2                !
 ! A198  A(104,103,106)        117.1942         estimate D2E/DX2                !
 ! A199  A(103,106,107)        122.7874         estimate D2E/DX2                !
 ! A200  A(103,106,108)        116.514          estimate D2E/DX2                !
 ! A201  A(107,106,108)        120.6986         estimate D2E/DX2                !
 ! A202  A(106,108,109)        111.4844         estimate D2E/DX2                !
 ! A203  A(1,113,114)          111.0233         estimate D2E/DX2                !
 ! A204  A(1,113,115)          110.5755         estimate D2E/DX2                !
 ! A205  A(1,113,116)          110.4391         estimate D2E/DX2                !
 ! A206  A(114,113,115)        108.3585         estimate D2E/DX2                !
 ! A207  A(114,113,116)        108.3235         estimate D2E/DX2                !
 ! A208  A(115,113,116)        108.0255         estimate D2E/DX2                !
 ! A209  A(1,117,118)          111.037          estimate D2E/DX2                !
 ! A210  A(1,117,119)          110.42           estimate D2E/DX2                !
 ! A211  A(1,117,120)          110.592          estimate D2E/DX2                !
 ! A212  A(118,117,119)        108.3033         estimate D2E/DX2                !
 ! A213  A(118,117,120)        108.3706         estimate D2E/DX2                !
 ! A214  A(119,117,120)        108.0218         estimate D2E/DX2                !
 ! A215  L(103,104,105,1,-1)   184.7603         estimate D2E/DX2                !
 ! A216  L(103,104,105,1,-2)   180.1557         estimate D2E/DX2                !
 ! D1    D(8,1,2,3)             -0.1469         estimate D2E/DX2                !
 ! D2    D(8,1,2,92)          -179.9574         estimate D2E/DX2                !
 ! D3    D(113,1,2,3)          117.8321         estimate D2E/DX2                !
 ! D4    D(113,1,2,92)         -61.9785         estimate D2E/DX2                !
 ! D5    D(117,1,2,3)         -118.0639         estimate D2E/DX2                !
 ! D6    D(117,1,2,92)          62.1256         estimate D2E/DX2                !
 ! D7    D(2,1,8,4)              0.0355         estimate D2E/DX2                !
 ! D8    D(2,1,8,7)            179.9771         estimate D2E/DX2                !
 ! D9    D(113,1,8,4)         -118.0395         estimate D2E/DX2                !
 ! D10   D(113,1,8,7)           61.9022         estimate D2E/DX2                !
 ! D11   D(117,1,8,4)          118.0463         estimate D2E/DX2                !
 ! D12   D(117,1,8,7)          -62.0121         estimate D2E/DX2                !
 ! D13   D(2,1,113,114)        -55.2673         estimate D2E/DX2                !
 ! D14   D(2,1,113,115)         65.0431         estimate D2E/DX2                !
 ! D15   D(2,1,113,116)       -175.4435         estimate D2E/DX2                !
 ! D16   D(8,1,113,114)         55.6774         estimate D2E/DX2                !
 ! D17   D(8,1,113,115)        175.9878         estimate D2E/DX2                !
 ! D18   D(8,1,113,116)        -64.4988         estimate D2E/DX2                !
 ! D19   D(117,1,113,114)     -179.9243         estimate D2E/DX2                !
 ! D20   D(117,1,113,115)      -59.6138         estimate D2E/DX2                !
 ! D21   D(117,1,113,116)       59.8996         estimate D2E/DX2                !
 ! D22   D(2,1,117,118)         55.044          estimate D2E/DX2                !
 ! D23   D(2,1,117,119)        175.191          estimate D2E/DX2                !
 ! D24   D(2,1,117,120)        -65.3018         estimate D2E/DX2                !
 ! D25   D(8,1,117,118)        -55.8546         estimate D2E/DX2                !
 ! D26   D(8,1,117,119)         64.2925         estimate D2E/DX2                !
 ! D27   D(8,1,117,120)       -176.2004         estimate D2E/DX2                !
 ! D28   D(113,1,117,118)      179.7248         estimate D2E/DX2                !
 ! D29   D(113,1,117,119)      -60.1282         estimate D2E/DX2                !
 ! D30   D(113,1,117,120)       59.379          estimate D2E/DX2                !
 ! D31   D(1,2,3,4)              0.2067         estimate D2E/DX2                !
 ! D32   D(1,2,3,90)          -179.9694         estimate D2E/DX2                !
 ! D33   D(92,2,3,4)          -179.9347         estimate D2E/DX2                !
 ! D34   D(92,2,3,90)           -0.1108         estimate D2E/DX2                !
 ! D35   D(1,2,92,91)          179.7709         estimate D2E/DX2                !
 ! D36   D(1,2,92,93)            1.0376         estimate D2E/DX2                !
 ! D37   D(3,2,92,91)           -0.0369         estimate D2E/DX2                !
 ! D38   D(3,2,92,93)         -178.7702         estimate D2E/DX2                !
 ! D39   D(2,3,4,5)           -179.8843         estimate D2E/DX2                !
 ! D40   D(2,3,4,8)             -0.1807         estimate D2E/DX2                !
 ! D41   D(90,3,4,5)             0.3609         estimate D2E/DX2                !
 ! D42   D(90,3,4,8)          -179.9354         estimate D2E/DX2                !
 ! D43   D(2,3,90,91)            0.1701         estimate D2E/DX2                !
 ! D44   D(4,3,90,91)          179.9195         estimate D2E/DX2                !
 ! D45   D(3,4,5,6)            179.8465         estimate D2E/DX2                !
 ! D46   D(8,4,5,6)              0.1493         estimate D2E/DX2                !
 ! D47   D(3,4,8,1)              0.0829         estimate D2E/DX2                !
 ! D48   D(3,4,8,7)           -179.873          estimate D2E/DX2                !
 ! D49   D(5,4,8,1)            179.8705         estimate D2E/DX2                !
 ! D50   D(5,4,8,7)             -0.0853         estimate D2E/DX2                !
 ! D51   D(4,5,6,7)             -0.1777         estimate D2E/DX2                !
 ! D52   D(4,5,6,10)           179.8233         estimate D2E/DX2                !
 ! D53   D(5,6,7,8)              0.1639         estimate D2E/DX2                !
 ! D54   D(5,6,7,9)           -179.7958         estimate D2E/DX2                !
 ! D55   D(10,6,7,8)          -179.8373         estimate D2E/DX2                !
 ! D56   D(10,6,7,9)             0.203          estimate D2E/DX2                !
 ! D57   D(5,6,10,11)           -3.1249         estimate D2E/DX2                !
 ! D58   D(5,6,10,18)          176.6977         estimate D2E/DX2                !
 ! D59   D(7,6,10,11)          176.8764         estimate D2E/DX2                !
 ! D60   D(7,6,10,18)           -3.3011         estimate D2E/DX2                !
 ! D61   D(6,7,8,1)           -179.9952         estimate D2E/DX2                !
 ! D62   D(6,7,8,4)             -0.0545         estimate D2E/DX2                !
 ! D63   D(9,7,8,1)             -0.0376         estimate D2E/DX2                !
 ! D64   D(9,7,8,4)            179.9031         estimate D2E/DX2                !
 ! D65   D(6,10,11,12)         179.4026         estimate D2E/DX2                !
 ! D66   D(6,10,11,89)           0.0584         estimate D2E/DX2                !
 ! D67   D(18,10,11,12)         -0.433          estimate D2E/DX2                !
 ! D68   D(18,10,11,89)       -179.7771         estimate D2E/DX2                !
 ! D69   D(6,10,18,14)        -179.4691         estimate D2E/DX2                !
 ! D70   D(6,10,18,17)           0.9579         estimate D2E/DX2                !
 ! D71   D(11,10,18,14)          0.3664         estimate D2E/DX2                !
 ! D72   D(11,10,18,17)       -179.2066         estimate D2E/DX2                !
 ! D73   D(10,11,12,13)          0.4073         estimate D2E/DX2                !
 ! D74   D(10,11,12,88)       -178.0106         estimate D2E/DX2                !
 ! D75   D(89,11,12,13)        179.7645         estimate D2E/DX2                !
 ! D76   D(89,11,12,88)          1.3465         estimate D2E/DX2                !
 ! D77   D(11,12,13,14)         -0.2572         estimate D2E/DX2                !
 ! D78   D(11,12,13,19)        179.3601         estimate D2E/DX2                !
 ! D79   D(88,12,13,14)        178.1392         estimate D2E/DX2                !
 ! D80   D(88,12,13,19)         -2.2435         estimate D2E/DX2                !
 ! D81   D(12,13,14,15)        179.0611         estimate D2E/DX2                !
 ! D82   D(12,13,14,18)          0.1978         estimate D2E/DX2                !
 ! D83   D(19,13,14,15)         -0.5502         estimate D2E/DX2                !
 ! D84   D(19,13,14,18)       -179.4136         estimate D2E/DX2                !
 ! D85   D(12,13,19,20)        145.5156         estimate D2E/DX2                !
 ! D86   D(12,13,19,24)        -32.7865         estimate D2E/DX2                !
 ! D87   D(14,13,19,20)        -34.9004         estimate D2E/DX2                !
 ! D88   D(14,13,19,24)        146.7975         estimate D2E/DX2                !
 ! D89   D(13,14,15,16)       -179.2852         estimate D2E/DX2                !
 ! D90   D(18,14,15,16)         -0.3358         estimate D2E/DX2                !
 ! D91   D(13,14,18,10)         -0.2714         estimate D2E/DX2                !
 ! D92   D(13,14,18,17)        179.3535         estimate D2E/DX2                !
 ! D93   D(15,14,18,10)       -179.2671         estimate D2E/DX2                !
 ! D94   D(15,14,18,17)          0.3578         estimate D2E/DX2                !
 ! D95   D(14,15,16,17)          0.2061         estimate D2E/DX2                !
 ! D96   D(15,16,17,18)         -0.0043         estimate D2E/DX2                !
 ! D97   D(16,17,18,10)        179.4145         estimate D2E/DX2                !
 ! D98   D(16,17,18,14)         -0.1882         estimate D2E/DX2                !
 ! D99   D(13,19,20,21)       -177.7159         estimate D2E/DX2                !
 ! D100  D(13,19,20,87)          2.7796         estimate D2E/DX2                !
 ! D101  D(24,19,20,21)          0.6401         estimate D2E/DX2                !
 ! D102  D(24,19,20,87)       -178.8645         estimate D2E/DX2                !
 ! D103  D(13,19,24,23)        177.6251         estimate D2E/DX2                !
 ! D104  D(13,19,24,25)         -3.378          estimate D2E/DX2                !
 ! D105  D(20,19,24,23)         -0.7662         estimate D2E/DX2                !
 ! D106  D(20,19,24,25)        178.2307         estimate D2E/DX2                !
 ! D107  D(19,20,21,22)         -0.1184         estimate D2E/DX2                !
 ! D108  D(19,20,21,86)        179.9067         estimate D2E/DX2                !
 ! D109  D(87,20,21,22)        179.3893         estimate D2E/DX2                !
 ! D110  D(87,20,21,86)         -0.5856         estimate D2E/DX2                !
 ! D111  D(20,21,22,23)         -0.3016         estimate D2E/DX2                !
 ! D112  D(20,21,22,27)        179.8671         estimate D2E/DX2                !
 ! D113  D(86,21,22,23)        179.6734         estimate D2E/DX2                !
 ! D114  D(86,21,22,27)         -0.1579         estimate D2E/DX2                !
 ! D115  D(21,22,23,24)          0.1791         estimate D2E/DX2                !
 ! D116  D(21,22,23,26)       -179.4746         estimate D2E/DX2                !
 ! D117  D(27,22,23,24)       -179.9897         estimate D2E/DX2                !
 ! D118  D(27,22,23,26)          0.3567         estimate D2E/DX2                !
 ! D119  D(21,22,27,28)        146.2799         estimate D2E/DX2                !
 ! D120  D(21,22,27,57)        -35.0443         estimate D2E/DX2                !
 ! D121  D(23,22,27,28)        -33.5463         estimate D2E/DX2                !
 ! D122  D(23,22,27,57)        145.1296         estimate D2E/DX2                !
 ! D123  D(22,23,24,19)          0.368          estimate D2E/DX2                !
 ! D124  D(22,23,24,25)       -178.6398         estimate D2E/DX2                !
 ! D125  D(26,23,24,19)       -179.9787         estimate D2E/DX2                !
 ! D126  D(26,23,24,25)          1.0135         estimate D2E/DX2                !
 ! D127  D(22,27,28,29)        134.7611         estimate D2E/DX2                !
 ! D128  D(22,27,28,33)        -45.8396         estimate D2E/DX2                !
 ! D129  D(57,27,28,29)        -43.9333         estimate D2E/DX2                !
 ! D130  D(57,27,28,33)        135.4661         estimate D2E/DX2                !
 ! D131  D(22,27,57,58)        135.0751         estimate D2E/DX2                !
 ! D132  D(22,27,57,62)        -45.3468         estimate D2E/DX2                !
 ! D133  D(28,27,57,58)        -46.2293         estimate D2E/DX2                !
 ! D134  D(28,27,57,62)        133.3488         estimate D2E/DX2                !
 ! D135  D(27,28,29,30)        179.6201         estimate D2E/DX2                !
 ! D136  D(27,28,29,56)         -0.8146         estimate D2E/DX2                !
 ! D137  D(33,28,29,30)          0.207          estimate D2E/DX2                !
 ! D138  D(33,28,29,56)        179.7722         estimate D2E/DX2                !
 ! D139  D(27,28,33,32)        179.6888         estimate D2E/DX2                !
 ! D140  D(27,28,33,34)         -0.6359         estimate D2E/DX2                !
 ! D141  D(29,28,33,32)         -0.8996         estimate D2E/DX2                !
 ! D142  D(29,28,33,34)        178.7757         estimate D2E/DX2                !
 ! D143  D(28,29,30,31)          0.6606         estimate D2E/DX2                !
 ! D144  D(28,29,30,55)        179.7539         estimate D2E/DX2                !
 ! D145  D(56,29,30,31)       -178.9025         estimate D2E/DX2                !
 ! D146  D(56,29,30,55)          0.1909         estimate D2E/DX2                !
 ! D147  D(29,30,31,32)         -0.8092         estimate D2E/DX2                !
 ! D148  D(29,30,31,36)        177.2703         estimate D2E/DX2                !
 ! D149  D(55,30,31,32)       -179.9033         estimate D2E/DX2                !
 ! D150  D(55,30,31,36)         -1.8239         estimate D2E/DX2                !
 ! D151  D(30,31,32,33)          0.1076         estimate D2E/DX2                !
 ! D152  D(30,31,32,35)       -178.0104         estimate D2E/DX2                !
 ! D153  D(36,31,32,33)       -177.9997         estimate D2E/DX2                !
 ! D154  D(36,31,32,35)          3.8823         estimate D2E/DX2                !
 ! D155  D(30,31,36,37)       -136.468          estimate D2E/DX2                !
 ! D156  D(30,31,36,41)         42.4732         estimate D2E/DX2                !
 ! D157  D(32,31,36,37)         41.5517         estimate D2E/DX2                !
 ! D158  D(32,31,36,41)       -139.5071         estimate D2E/DX2                !
 ! D159  D(31,32,33,28)          0.7499         estimate D2E/DX2                !
 ! D160  D(31,32,33,34)       -178.9235         estimate D2E/DX2                !
 ! D161  D(35,32,33,28)        178.8764         estimate D2E/DX2                !
 ! D162  D(35,32,33,34)         -0.797          estimate D2E/DX2                !
 ! D163  D(31,36,37,38)        178.7826         estimate D2E/DX2                !
 ! D164  D(31,36,37,54)          0.6182         estimate D2E/DX2                !
 ! D165  D(41,36,37,38)         -0.2281         estimate D2E/DX2                !
 ! D166  D(41,36,37,54)       -178.3925         estimate D2E/DX2                !
 ! D167  D(31,36,41,40)       -178.6163         estimate D2E/DX2                !
 ! D168  D(31,36,41,42)          0.1052         estimate D2E/DX2                !
 ! D169  D(37,36,41,40)          0.3616         estimate D2E/DX2                !
 ! D170  D(37,36,41,42)        179.0831         estimate D2E/DX2                !
 ! D171  D(36,37,38,39)         -0.2745         estimate D2E/DX2                !
 ! D172  D(36,37,38,53)       -178.9564         estimate D2E/DX2                !
 ! D173  D(54,37,38,39)        177.8858         estimate D2E/DX2                !
 ! D174  D(54,37,38,53)         -0.7962         estimate D2E/DX2                !
 ! D175  D(37,38,39,40)          0.6485         estimate D2E/DX2                !
 ! D176  D(37,38,39,48)       -179.2124         estimate D2E/DX2                !
 ! D177  D(53,38,39,40)        179.3655         estimate D2E/DX2                !
 ! D178  D(53,38,39,48)         -0.4954         estimate D2E/DX2                !
 ! D179  D(38,39,40,41)         -0.5188         estimate D2E/DX2                !
 ! D180  D(38,39,40,47)       -179.9143         estimate D2E/DX2                !
 ! D181  D(48,39,40,41)        179.3296         estimate D2E/DX2                !
 ! D182  D(48,39,40,47)         -0.066          estimate D2E/DX2                !
 ! D183  D(38,39,48,49)        179.0268         estimate D2E/DX2                !
 ! D184  D(40,39,48,49)         -0.8256         estimate D2E/DX2                !
 ! D185  D(39,40,41,36)          0.0063         estimate D2E/DX2                !
 ! D186  D(39,40,41,42)       -178.7718         estimate D2E/DX2                !
 ! D187  D(47,40,41,36)        179.4307         estimate D2E/DX2                !
 ! D188  D(47,40,41,42)          0.6526         estimate D2E/DX2                !
 ! D189  D(36,41,42,43)         81.9517         estimate D2E/DX2                !
 ! D190  D(40,41,42,43)        -99.2662         estimate D2E/DX2                !
 ! D191  D(41,42,43,44)         60.9887         estimate D2E/DX2                !
 ! D192  D(41,42,43,45)        179.8631         estimate D2E/DX2                !
 ! D193  D(41,42,43,46)        -60.9652         estimate D2E/DX2                !
 ! D194  D(39,48,49,50)       -179.2848         estimate D2E/DX2                !
 ! D195  D(39,48,49,51)        -60.5167         estimate D2E/DX2                !
 ! D196  D(39,48,49,52)         62.0051         estimate D2E/DX2                !
 ! D197  D(27,57,58,59)        179.2759         estimate D2E/DX2                !
 ! D198  D(27,57,58,85)         -0.3265         estimate D2E/DX2                !
 ! D199  D(62,57,58,59)         -0.3122         estimate D2E/DX2                !
 ! D200  D(62,57,58,85)       -179.9146         estimate D2E/DX2                !
 ! D201  D(27,57,62,61)       -179.9678         estimate D2E/DX2                !
 ! D202  D(27,57,62,63)          0.564          estimate D2E/DX2                !
 ! D203  D(58,57,62,61)         -0.3815         estimate D2E/DX2                !
 ! D204  D(58,57,62,63)       -179.8498         estimate D2E/DX2                !
 ! D205  D(57,58,59,60)          0.4892         estimate D2E/DX2                !
 ! D206  D(57,58,59,84)        179.9723         estimate D2E/DX2                !
 ! D207  D(85,58,59,60)       -179.9109         estimate D2E/DX2                !
 ! D208  D(85,58,59,84)         -0.4277         estimate D2E/DX2                !
 ! D209  D(58,59,60,61)          0.0321         estimate D2E/DX2                !
 ! D210  D(58,59,60,65)       -177.7564         estimate D2E/DX2                !
 ! D211  D(84,59,60,61)       -179.4501         estimate D2E/DX2                !
 ! D212  D(84,59,60,65)          2.7614         estimate D2E/DX2                !
 ! D213  D(59,60,61,62)         -0.7372         estimate D2E/DX2                !
 ! D214  D(59,60,61,64)        178.9778         estimate D2E/DX2                !
 ! D215  D(65,60,61,62)        177.1047         estimate D2E/DX2                !
 ! D216  D(65,60,61,64)         -3.1803         estimate D2E/DX2                !
 ! D217  D(59,60,65,66)        -46.2906         estimate D2E/DX2                !
 ! D218  D(59,60,65,70)        134.6078         estimate D2E/DX2                !
 ! D219  D(61,60,65,66)        135.9822         estimate D2E/DX2                !
 ! D220  D(61,60,65,70)        -43.1193         estimate D2E/DX2                !
 ! D221  D(60,61,62,57)          0.9246         estimate D2E/DX2                !
 ! D222  D(60,61,62,63)       -179.609          estimate D2E/DX2                !
 ! D223  D(64,61,62,57)       -178.7914         estimate D2E/DX2                !
 ! D224  D(64,61,62,63)          0.6749         estimate D2E/DX2                !
 ! D225  D(60,65,66,67)       -179.0192         estimate D2E/DX2                !
 ! D226  D(60,65,66,79)          0.259          estimate D2E/DX2                !
 ! D227  D(70,65,66,67)          0.1093         estimate D2E/DX2                !
 ! D228  D(70,65,66,79)        179.3874         estimate D2E/DX2                !
 ! D229  D(60,65,70,69)        179.1364         estimate D2E/DX2                !
 ! D230  D(60,65,70,71)         -2.1085         estimate D2E/DX2                !
 ! D231  D(66,65,70,69)         -0.0192         estimate D2E/DX2                !
 ! D232  D(66,65,70,71)        178.7359         estimate D2E/DX2                !
 ! D233  D(65,66,67,68)         -0.1351         estimate D2E/DX2                !
 ! D234  D(65,66,67,78)        179.5544         estimate D2E/DX2                !
 ! D235  D(79,66,67,68)       -179.3703         estimate D2E/DX2                !
 ! D236  D(79,66,67,78)          0.3192         estimate D2E/DX2                !
 ! D237  D(65,66,79,80)       -176.3791         estimate D2E/DX2                !
 ! D238  D(67,66,79,80)          2.8894         estimate D2E/DX2                !
 ! D239  D(66,67,68,69)          0.0673         estimate D2E/DX2                !
 ! D240  D(66,67,68,73)       -179.7328         estimate D2E/DX2                !
 ! D241  D(78,67,68,69)       -179.6211         estimate D2E/DX2                !
 ! D242  D(78,67,68,73)          0.5787         estimate D2E/DX2                !
 ! D243  D(67,68,69,70)          0.0212         estimate D2E/DX2                !
 ! D244  D(67,68,69,72)       -179.3807         estimate D2E/DX2                !
 ! D245  D(73,68,69,70)        179.8366         estimate D2E/DX2                !
 ! D246  D(73,68,69,72)          0.4347         estimate D2E/DX2                !
 ! D247  D(67,68,73,74)         -0.1189         estimate D2E/DX2                !
 ! D248  D(69,68,73,74)       -179.9258         estimate D2E/DX2                !
 ! D249  D(68,69,70,65)         -0.0454         estimate D2E/DX2                !
 ! D250  D(68,69,70,71)       -178.7937         estimate D2E/DX2                !
 ! D251  D(72,69,70,65)        179.3401         estimate D2E/DX2                !
 ! D252  D(72,69,70,71)          0.5917         estimate D2E/DX2                !
 ! D253  D(68,73,74,75)         61.3151         estimate D2E/DX2                !
 ! D254  D(68,73,74,76)        179.9463         estimate D2E/DX2                !
 ! D255  D(68,73,74,77)        -61.4362         estimate D2E/DX2                !
 ! D256  D(66,79,80,81)        -63.1767         estimate D2E/DX2                !
 ! D257  D(66,79,80,82)         59.6789         estimate D2E/DX2                !
 ! D258  D(66,79,80,83)        178.2233         estimate D2E/DX2                !
 ! D259  D(3,90,91,92)          -0.1879         estimate D2E/DX2                !
 ! D260  D(3,90,91,94)         179.8423         estimate D2E/DX2                !
 ! D261  D(90,91,92,2)           0.162          estimate D2E/DX2                !
 ! D262  D(90,91,92,93)        178.9225         estimate D2E/DX2                !
 ! D263  D(94,91,92,2)        -179.8711         estimate D2E/DX2                !
 ! D264  D(94,91,92,93)         -1.1106         estimate D2E/DX2                !
 ! D265  D(90,91,94,95)        167.3212         estimate D2E/DX2                !
 ! D266  D(90,91,94,99)        -12.7595         estimate D2E/DX2                !
 ! D267  D(92,91,94,95)        -12.6427         estimate D2E/DX2                !
 ! D268  D(92,91,94,99)        167.2767         estimate D2E/DX2                !
 ! D269  D(91,94,95,96)        179.5853         estimate D2E/DX2                !
 ! D270  D(91,94,95,112)        -1.5187         estimate D2E/DX2                !
 ! D271  D(99,94,95,96)         -0.3376         estimate D2E/DX2                !
 ! D272  D(99,94,95,112)       178.5584         estimate D2E/DX2                !
 ! D273  D(91,94,99,98)       -179.92           estimate D2E/DX2                !
 ! D274  D(91,94,99,100)        -0.7322         estimate D2E/DX2                !
 ! D275  D(95,94,99,98)          0.0021         estimate D2E/DX2                !
 ! D276  D(95,94,99,100)       179.19           estimate D2E/DX2                !
 ! D277  D(94,95,96,97)          0.3904         estimate D2E/DX2                !
 ! D278  D(94,95,96,111)       179.8397         estimate D2E/DX2                !
 ! D279  D(112,95,96,97)      -178.5151         estimate D2E/DX2                !
 ! D280  D(112,95,96,111)        0.9342         estimate D2E/DX2                !
 ! D281  D(95,96,97,98)         -0.0956         estimate D2E/DX2                !
 ! D282  D(95,96,97,102)       179.7773         estimate D2E/DX2                !
 ! D283  D(111,96,97,98)      -179.5474         estimate D2E/DX2                !
 ! D284  D(111,96,97,102)        0.3256         estimate D2E/DX2                !
 ! D285  D(96,97,98,99)         -0.2406         estimate D2E/DX2                !
 ! D286  D(96,97,98,101)      -179.8377         estimate D2E/DX2                !
 ! D287  D(102,97,98,99)       179.8976         estimate D2E/DX2                !
 ! D288  D(102,97,98,101)        0.3005         estimate D2E/DX2                !
 ! D289  D(96,97,102,103)      179.6822         estimate D2E/DX2                !
 ! D290  D(96,97,102,110)       -0.2809         estimate D2E/DX2                !
 ! D291  D(98,97,102,103)       -0.4562         estimate D2E/DX2                !
 ! D292  D(98,97,102,110)      179.5807         estimate D2E/DX2                !
 ! D293  D(97,98,99,94)          0.2889         estimate D2E/DX2                !
 ! D294  D(97,98,99,100)      -178.9073         estimate D2E/DX2                !
 ! D295  D(101,98,99,94)       179.8934         estimate D2E/DX2                !
 ! D296  D(101,98,99,100)        0.6972         estimate D2E/DX2                !
 ! D297  D(97,102,103,104)      -0.0243         estimate D2E/DX2                !
 ! D298  D(97,102,103,106)     179.9818         estimate D2E/DX2                !
 ! D299  D(110,102,103,104)    179.9395         estimate D2E/DX2                !
 ! D300  D(110,102,103,106)     -0.0544         estimate D2E/DX2                !
 ! D301  D(102,103,106,107)      0.074          estimate D2E/DX2                !
 ! D302  D(102,103,106,108)   -179.9243         estimate D2E/DX2                !
 ! D303  D(104,103,106,107)   -179.9204         estimate D2E/DX2                !
 ! D304  D(104,103,106,108)      0.0813         estimate D2E/DX2                !
 ! D305  D(103,106,108,109)     -0.0114         estimate D2E/DX2                !
 ! D306  D(107,106,108,109)    179.9903         estimate D2E/DX2                !
 --------------------------------------------------------------------------------
 Trust Radius=3.00D-01 FncErr=1.00D-07 GrdErr=1.00D-06 EigMax=2.50D+02 EigMin=1.00D-04
 Number of steps in this run=    662 maximum allowed number of steps=    720.
 GradGradGradGradGradGradGradGradGradGradGradGradGradGradGradGradGradGrad

 Stoichiometry    C61H46N4O6S3
 Framework group  C1[X(C61H46N4O6S3)]
 Deg. of freedom   354
 Full point group                 C1      NOp   1
 Largest Abelian subgroup         C1      NOp   1
 Largest concise Abelian subgroup C1      NOp   1
                         Standard orientation:                         
 ---------------------------------------------------------------------
 Center     Atomic      Atomic             Coordinates (Angstroms)
 Number     Number       Type             X           Y           Z
 ---------------------------------------------------------------------
      1          6           0        7.546561   -1.280310    2.683097
      2          6           0        8.592842   -0.800254    1.678459
      3          6           0        7.982348   -0.250768    0.559527
      4          6           0        6.560027   -0.312166    0.721275
      5         16           0        5.139569    0.126570   -0.154442
      6          6           0        4.110677   -0.497597    1.154165
      7          6           0        4.886064   -1.009111    2.184047
      8          6           0        6.267212   -0.903068    1.938473
      9          1           0        4.434723   -1.436566    3.066072
     10          6           0        2.664740   -0.421969    1.036834
     11          6           0        2.033004    0.180668   -0.038723
     12          6           0        0.630861    0.259925   -0.188264
     13          6           0       -0.271476   -0.248550    0.727084
     14          6           0        0.325305   -0.886039    1.870252
     15          7           0       -0.341718   -1.432283    2.889414
     16         16           0        0.764611   -2.009353    3.945696
     17          7           0        2.137532   -1.584801    3.156203
     18          6           0        1.773595   -0.971653    2.029089
     19          6           0       -1.727905   -0.129793    0.534743
     20          6           0       -2.627700   -1.127090    0.949407
     21          6           0       -3.989468   -1.015240    0.716343
     22          6           0       -4.520458    0.105162    0.056672
     23          6           0       -3.630876    1.111584   -0.353867
     24          6           0       -2.271351    0.992571   -0.114460
     25          1           0       -1.618590    1.799849   -0.426000
     26          1           0       -4.012512    1.990779   -0.857038
     27          7           0       -5.905965    0.218076   -0.183178
     28          6           0       -6.541714    1.490986   -0.162595
     29          6           0       -7.452277    1.849593   -1.164607
     30          6           0       -8.080003    3.087880   -1.142777
     31          6           0       -7.814461    4.022365   -0.129081
     32          6           0       -6.902809    3.649608    0.871239
     33          6           0       -6.281857    2.406948    0.863770
     34          1           0       -5.595470    2.138317    1.657746
     35          1           0       -6.698462    4.333679    1.687379
     36          6           0       -8.431479    5.372355   -0.123591
     37          6           0       -7.655440    6.504999    0.184186
     38          6           0       -8.175336    7.787662    0.179345
     39          6           0       -9.520917    7.991698   -0.146516
     40          6           0      -10.322163    6.890794   -0.449187
     41          6           0       -9.781010    5.603663   -0.436548
     42          8           0      -10.630860    4.567494   -0.772508
     43          6           0      -11.174607    3.854858    0.341958
     44          1           0      -11.768846    4.521873    0.977035
     45          1           0      -11.818644    3.079567   -0.072520
     46          1           0      -10.385781    3.390238    0.941552
     47          1           0      -11.366991    6.989955   -0.708897
     48          8           0       -9.950727    9.284025   -0.144623
     49          6           0      -11.303899    9.547345   -0.489284
     50          1           0      -11.419341   10.628514   -0.434744
     51          1           0      -11.531966    9.209206   -1.506079
     52          1           0      -11.997205    9.073730    0.214791
     53          1           0       -7.557214    8.648199    0.402949
     54          1           0       -6.602998    6.368378    0.405019
     55          1           0       -8.776499    3.344012   -1.929784
     56          1           0       -7.660802    1.152742   -1.967442
     57          6           0       -6.684190   -0.938764   -0.477466
     58          6           0       -7.924033   -1.137885    0.141914
     59          6           0       -8.692136   -2.255911   -0.153082
     60          6           0       -8.251760   -3.224345   -1.068286
     61          6           0       -7.002848   -3.017724   -1.673254
     62          6           0       -6.234035   -1.894297   -1.394612
     63          1           0       -5.276141   -1.759105   -1.882366
     64          1           0       -6.622935   -3.753594   -2.372990
     65          6           0       -9.074355   -4.404066   -1.438322
     66          6           0       -9.741533   -5.204812   -0.488005
     67          6           0      -10.490422   -6.320690   -0.879745
     68          6           0      -10.589114   -6.656541   -2.233187
     69          6           0       -9.938791   -5.878317   -3.191525
     70          6           0       -9.200749   -4.778553   -2.783035
     71          1           0       -8.714408   -4.166883   -3.534234
     72          1           0      -10.032331   -6.144342   -4.236502
     73          8           0      -11.299441   -7.720324   -2.704903
     74          6           0      -11.985477   -8.550716   -1.780708
     75          1           0      -12.745332   -7.991399   -1.222891
     76          1           0      -12.473802   -9.319260   -2.377619
     77          1           0      -11.294191   -9.027627   -1.076442
     78          1           0      -10.986088   -6.922385   -0.134488
     79          8           0       -9.602716   -4.840751    0.820595
     80          6           0      -10.183472   -5.647349    1.833286
     81          1           0      -11.275635   -5.680701    1.748293
     82          1           0       -9.784755   -6.667732    1.813423
     83          1           0       -9.912805   -5.176009    2.776807
     84          1           0       -9.646101   -2.386068    0.339831
     85          1           0       -8.285881   -0.405206    0.853395
     86          1           0       -4.654626   -1.802552    1.047713
     87          1           0       -2.255914   -1.998856    1.468874
     88          1           0        0.252500    0.727024   -1.089395
     89          1           0        2.635999    0.614377   -0.828430
     90         16           0        9.123789    0.305543   -0.605419
     91          6           0       10.469575   -0.212829    0.424075
     92          6           0        9.994005   -0.777274    1.599899
     93          1           0       10.653402   -1.174492    2.359953
     94          6           0       11.846087   -0.026495    0.002967
     95          6           0       12.911052   -0.188287    0.914530
     96          6           0       14.220700   -0.019765    0.513571
     97          6           0       14.553611    0.327482   -0.814183
     98          6           0       13.488229    0.495374   -1.724850
     99          6           0       12.178791    0.320031   -1.325168
    100          1           0       11.391855    0.441040   -2.060468
    101          1           0       13.683793    0.758683   -2.755101
    102          6           0       15.951965    0.484358   -1.128773
    103          6           0       16.598111    0.801101   -2.284978
    104          6           0       15.969472    1.065192   -3.530449
    105          7           0       15.544201    1.294906   -4.583914
    106          6           0       18.103574    0.878389   -2.242749
    107          8           0       18.738018    0.672509   -1.243038
    108          8           0       18.723307    1.195286   -3.399137
    109          1           0       18.087752    1.332222   -4.115879
    110          1           0       16.637229    0.323158   -0.300363
    111          1           0       15.018492   -0.148074    1.237166
    112          1           0       12.704703   -0.430789    1.949174
    113          6           0        7.637268   -2.804247    2.911604
    114          1           0        7.558605   -3.347206    1.967676
    115          1           0        8.589316   -3.066421    3.381452
    116          1           0        6.831512   -3.140233    3.569513
    117          6           0        7.660911   -0.524229    4.024198
    118          1           0        7.602613    0.555306    3.871714
    119          1           0        6.853024   -0.819794    4.698782
    120          1           0        8.611489   -0.752222    4.514437
 ---------------------------------------------------------------------
 Rotational constants (GHZ):           0.0298996           0.0053444           0.0048132
 Standard basis: 6-311G(d,p) (5D, 7F)
 There are  1706 symmetry adapted cartesian basis functions of A   symmetry.
 There are  1632 symmetry adapted basis functions of A   symmetry.
  1632 basis functions,  2778 primitive gaussians,  1706 cartesian basis functions
   268 alpha electrons      268 beta electrons
       nuclear repulsion energy     10029.7007763290 Hartrees.
 NAtoms=  120 NActive=  120 NUniq=  120 SFac= 1.00D+00 NAtFMM=   60 NAOKFM=T Big=T
 Integral buffers will be    131072 words long.
 Raffenetti 2 integral format.
 Two-electron integral symmetry is turned on.
 One-electron integrals computed using PRISM.
 NBasis=  1632 RedAO= T EigKep=  1.15D-04  NBF=  1632
 NBsUse=  1632 1.00D-06 EigRej= -1.00D+00 NBFU=  1632
 ExpMin= 7.71D-02 ExpMax= 9.34D+04 ExpMxC= 3.17D+03 IAcc=3 IRadAn=         5 AccDes= 0.00D+00
 Harris functional with IExCor= 1009 and IRadAn=       5 diagonalized for initial guess.
 HarFok:  IExCor= 1009 AccDes= 0.00D+00 IRadAn=         5 IDoV= 1 UseB2=F ITyADJ=14
 ICtDFT=  3500011 ScaDFX=  1.000000  1.000000  1.000000  1.000000
 FoFCou: FMM=F IPFlag=           0 FMFlag=      100000 FMFlg1=        2001
         NFxFlg=           0 DoJE=T BraDBF=F KetDBF=T FulRan=T
         wScrn=  0.000000 ICntrl=       500 IOpCl=  0 I1Cent=   200000004 NGrid=           0
         NMat0=    1 NMatS0=      1 NMatT0=    0 NMatD0=    1 NMtDS0=    0 NMtDT0=    0
 Petite list used in FoFCou.
 Requested convergence on RMS density matrix=1.00D-08 within 128 cycles.
 Requested convergence on MAX density matrix=1.00D-06.
 Requested convergence on             energy=1.00D-06.
 No special actions if energy rises.
 Integral accuracy reduced to 1.0D-05 until final iterations.
 EnCoef did     4 forward-backward iterations
 Initial convergence to 1.0D-05 achieved.  Increase integral accuracy.
 SCF Done:  E(RPBE1PBE) =  -4213.87706833     A.U. after   18 cycles
            NFock= 18  Conv=0.25D-08     -V/T= 2.0032
 Hyperfine terms turned off by default for NAtoms > 100.

 **********************************************************************

            Population analysis using the SCF Density.

 **********************************************************************

 Orbital symmetries:
       Occupied  (A) (A) (A) (A) (A) (A) (A) (A) (A) (A) (A) (A)
                 (A) (A) (A) (A) (A) (A) (A) (A) (A) (A) (A) (A)
                 (A) (A) (A) (A) (A) (A) (A) (A) (A) (A) (A) (A)
                 (A) (A) (A) (A) (A) (A) (A) (A) (A) (A) (A) (A)
                 (A) (A) (A) (A) (A) (A) (A) (A) (A) (A) (A) (A)
                 (A) (A) (A) (A) (A) (A) (A) (A) (A) (A) (A) (A)
                 (A) (A) (A) (A) (A) (A) (A) (A) (A) (A) (A) (A)
                 (A) (A) (A) (A) (A) (A) (A) (A) (A) (A) (A) (A)
                 (A) (A) (A) (A) (A) (A) (A) (A) (A) (A) (A) (A)
                 (A) (A) (A) (A) (A) (A) (A) (A) (A) (A) (A) (A)
                 (A) (A) (A) (A) (A) (A) (A) (A) (A) (A) (A) (A)
                 (A) (A) (A) (A) (A) (A) (A) (A) (A) (A) (A) (A)
                 (A) (A) (A) (A) (A) (A) (A) (A) (A) (A) (A) (A)
                 (A) (A) (A) (A) (A) (A) (A) (A) (A) (A) (A) (A)
                 (A) (A) (A) (A) (A) (A) (A) (A) (A) (A) (A) (A)
                 (A) (A) (A) (A) (A) (A) (A) (A) (A) (A) (A) (A)
                 (A) (A) (A) (A) (A) (A) (A) (A) (A) (A) (A) (A)
                 (A) (A) (A) (A) (A) (A) (A) (A) (A) (A) (A) (A)
                 (A) (A) (A) (A) (A) (A) (A) (A) (A) (A) (A) (A)
                 (A) (A) (A) (A) (A) (A) (A) (A) (A) (A) (A) (A)
                 (A) (A) (A) (A) (A) (A) (A) (A) (A) (A) (A) (A)
                 (A) (A) (A) (A) (A) (A) (A) (A) (A) (A) (A) (A)
                 (A) (A) (A) (A)
       Virtual   (A) (A) (A) (A) (A) (A) (A) (A) (A) (A) (A) (A)
                 (A) (A) (A) (A) (A) (A) (A) (A) (A) (A) (A) (A)
                 (A) (A) (A) (A) (A) (A) (A) (A) (A) (A) (A) (A)
                 (A) (A) (A) (A) (A) (A) (A) (A) (A) (A) (A) (A)
                 (A) (A) (A) (A) (A) (A) (A) (A) (A) (A) (A) (A)
                 (A) (A) (A) (A) (A) (A) (A) (A) (A) (A) (A) (A)
                 (A) (A) (A) (A) (A) (A) (A) (A) (A) (A) (A) (A)
                 (A) (A) (A) (A) (A) (A) (A) (A) (A) (A) (A) (A)
                 (A) (A) (A) (A) (A) (A) (A) (A) (A) (A) (A) (A)
                 (A) (A) (A) (A) (A) (A) (A) (A) (A) (A) (A) (A)
                 (A) (A) (A) (A) (A) (A) (A) (A) (A) (A) (A) (A)
                 (A) (A) (A) (A) (A) (A) (A) (A) (A) (A) (A) (A)
                 (A) (A) (A) (A) (A) (A) (A) (A) (A) (A) (A) (A)
                 (A) (A) (A) (A) (A) (A) (A) (A) (A) (A) (A) (A)
                 (A) (A) (A) (A) (A) (A) (A) (A) (A) (A) (A) (A)
                 (A) (A) (A) (A) (A) (A) (A) (A) (A) (A) (A) (A)
                 (A) (A) (A) (A) (A) (A) (A) (A) (A) (A) (A) (A)
                 (A) (A) (A) (A) (A) (A) (A) (A) (A) (A) (A) (A)
                 (A) (A) (A) (A) (A) (A) (A) (A) (A) (A) (A) (A)
                 (A) (A) (A) (A) (A) (A) (A) (A) (A) (A) (A) (A)
                 (A) (A) (A) (A) (A) (A) (A) (A) (A) (A) (A) (A)
                 (A) (A) (A) (A) (A) (A) (A) (A) (A) (A) (A) (A)
                 (A) (A) (A) (A) (A) (A) (A) (A) (A) (A) (A) (A)
                 (A) (A) (A) (A) (A) (A) (A) (A) (A) (A) (A) (A)
                 (A) (A) (A) (A) (A) (A) (A) (A) (A) (A) (A) (A)
                 (A) (A) (A) (A) (A) (A) (A) (A) (A) (A) (A) (A)
                 (A) (A) (A) (A) (A) (A) (A) (A) (A) (A) (A) (A)
                 (A) (A) (A) (A) (A) (A) (A) (A) (A) (A) (A) (A)
                 (A) (A) (A) (A) (A) (A) (A) (A) (A) (A) (A) (A)
                 (A) (A) (A) (A) (A) (A) (A) (A) (A) (A) (A) (A)
                 (A) (A) (A) (A) (A) (A) (A) (A) (A) (A) (A) (A)
                 (A) (A) (A) (A) (A) (A) (A) (A) (A) (A) (A) (A)
[...]
 Alpha virt. eigenvalues --    2.25499   2.25755   2.26225   2.26885   2.27532
 Alpha virt. eigenvalues --    2.28616   2.30271   2.30945   2.31125   2.31386
 Alpha virt. eigenvalues --    2.31544   2.32539   2.32929   2.33218   2.33324
 Alpha virt. eigenvalues --    2.33572   2.33883   2.34145   2.34353   2.34570
 Alpha virt. eigenvalues --    2.35088   2.35507   2.35921   2.36267   2.36470
 Alpha virt. eigenvalues --    2.36903   2.37148   2.37202   2.37644   2.37851
 Alpha virt. eigenvalues --    2.38288   2.38783   2.39078   2.40059   2.40149
 Alpha virt. eigenvalues --    2.40480   2.40945   2.41409   2.41777   2.41857
 Alpha virt. eigenvalues --    2.41965   2.42207   2.42337   2.43019   2.43089
 Alpha virt. eigenvalues --    2.43382   2.43879   2.44101   2.44408   2.44929
 Alpha virt. eigenvalues --    2.45208   2.45509   2.46297   2.46417   2.47099
 Alpha virt. eigenvalues --    2.47366   2.47738   2.48454   2.48795   2.49100
 Alpha virt. eigenvalues --    2.49177   2.49412   2.50866   2.50966   2.51292
 Alpha virt. eigenvalues --    2.52073   2.52207   2.52274   2.52757   2.53532
 Alpha virt. eigenvalues --    2.53536   2.53696   2.53902   2.53945   2.54043
 Alpha virt. eigenvalues --    2.54827   2.55713   2.55940   2.56364   2.56535
 Alpha virt. eigenvalues --    2.56688   2.57316   2.57831   2.58475   2.58790
 Alpha virt. eigenvalues --    2.59669   2.59804   2.59912   2.60361   2.60547
 Alpha virt. eigenvalues --    2.60755   2.61024   2.61303   2.61554   2.62211
 Alpha virt. eigenvalues --    2.62445   2.62985   2.63079   2.63273   2.63529
 Alpha virt. eigenvalues --    2.63628   2.63973   2.64030   2.64053   2.64399
 Alpha virt. eigenvalues --    2.64758   2.65362   2.65388   2.65617   2.65836
 Alpha virt. eigenvalues --    2.66190   2.66395   2.66930   2.67057   2.67286
 Alpha virt. eigenvalues --    2.67463   2.68159   2.68470   2.68791   2.68985
 Alpha virt. eigenvalues --    2.69108   2.69421   2.69463   2.69702   2.69897
 Alpha virt. eigenvalues --    2.70221   2.70445   2.70743   2.70984   2.71214
 Alpha virt. eigenvalues --    2.71323   2.71434   2.71682   2.72132   2.72219
 Alpha virt. eigenvalues --    2.72799   2.73007   2.73662   2.73917   2.74036
 Alpha virt. eigenvalues --    2.74460   2.74997   2.75365   2.75737   2.75853
 Alpha virt. eigenvalues --    2.76254   2.76301   2.76737   2.76864   2.77254
 Alpha virt. eigenvalues --    2.78021   2.78373   2.78928   2.79022   2.79118
 Alpha virt. eigenvalues --    2.79409   2.79868   2.80286   2.80500   2.81232
 Alpha virt. eigenvalues --    2.81992   2.82229   2.83051   2.83382   2.83693
 Alpha virt. eigenvalues --    2.84131   2.84368   2.84620   2.84989   2.85055
 Alpha virt. eigenvalues --    2.86057   2.86161   2.86417   2.87153   2.87479
 Alpha virt. eigenvalues --    2.87817   2.88261   2.88458   2.89234   2.89334
 Alpha virt. eigenvalues --    2.89569   2.89847   2.90496   2.90904   2.91010
 Alpha virt. eigenvalues --    2.91083   2.91946   2.92279   2.92800   2.93799
 Alpha virt. eigenvalues --    2.93921   2.94123   2.94686   2.95081   2.95257
 Alpha virt. eigenvalues --    2.95680   2.95799   2.95867   2.96384   2.96670
 Alpha virt. eigenvalues --    2.97177   2.97354   2.97662   2.97891   2.98870
 Alpha virt. eigenvalues --    2.99360   3.00505   3.00762   3.00772   3.01378
 Alpha virt. eigenvalues --    3.01506   3.02176   3.02347   3.02905   3.03618
 Alpha virt. eigenvalues --    3.05960   3.06081   3.06269   3.06387   3.06500
 Alpha virt. eigenvalues --    3.06734   3.06780   3.07115   3.07529   3.08693
 Alpha virt. eigenvalues --    3.09106   3.09500   3.10319   3.10427   3.10776
 Alpha virt. eigenvalues --    3.10985   3.11889   3.12305   3.13474   3.13846
 Alpha virt. eigenvalues --    3.14548   3.15264   3.15623   3.16690   3.17435
 Alpha virt. eigenvalues --    3.17617   3.18303   3.19941   3.19960   3.21376
 Alpha virt. eigenvalues --    3.21824   3.22375   3.22812   3.23225   3.23804
 Alpha virt. eigenvalues --    3.24358   3.24610   3.25045   3.25400   3.25581
 Alpha virt. eigenvalues --    3.26151   3.26375   3.26392   3.26643   3.27597
 Alpha virt. eigenvalues --    3.28137   3.29586   3.29947   3.30334   3.31741
 Alpha virt. eigenvalues --    3.33212   3.33697   3.35398   3.35531   3.35614
 Alpha virt. eigenvalues --    3.36996   3.37194   3.37479   3.38775   3.39466
 Alpha virt. eigenvalues --    3.39765   3.40249   3.40307   3.40746   3.41329
 Alpha virt. eigenvalues --    3.42285   3.42661   3.42901   3.43835   3.45431
 Alpha virt. eigenvalues --    3.45756   3.46327   3.46990   3.48387   3.48712
 Alpha virt. eigenvalues --    3.49295   3.51428   3.51489   3.52008   3.53228
 Alpha virt. eigenvalues --    3.53898   3.55089   3.55247   3.56447   3.57104
 Alpha virt. eigenvalues --    3.57153   3.57202   3.58254   3.58546   3.58997
 Alpha virt. eigenvalues --    3.59271   3.60143   3.60538   3.61211   3.62205
 Alpha virt. eigenvalues --    3.62325   3.63251   3.63862   3.65398   3.65676
 Alpha virt. eigenvalues --    3.66819   3.68023   3.70010   3.71100   3.75622
 Alpha virt. eigenvalues --    3.76562   3.77707   3.77968   3.77978   3.78795
 Alpha virt. eigenvalues --    3.78992   3.79020   3.79674   3.80616   3.81170
 Alpha virt. eigenvalues --    3.82116   3.82248   3.83328   3.83499   3.84213
 Alpha virt. eigenvalues --    3.84506   3.84601   3.85258   3.85400   3.87658
 Alpha virt. eigenvalues --    3.89315   3.90042   3.91120   3.91511   3.95226
 Alpha virt. eigenvalues --    3.97430   4.00346   4.01058   4.01662   4.01851
 Alpha virt. eigenvalues --    4.02053   4.03004   4.05208   4.05842   4.07945
 Alpha virt. eigenvalues --    4.09120   4.09255   4.09890   4.11219   4.12488
 Alpha virt. eigenvalues --    4.13157   4.14073   4.14672   4.14814   4.15228
 Alpha virt. eigenvalues --    4.15692   4.16166   4.17529   4.18029   4.18344
 Alpha virt. eigenvalues --    4.19263   4.20403   4.20891   4.21142   4.21719
 Alpha virt. eigenvalues --    4.22174   4.22947   4.23818   4.28779   4.31563
 Alpha virt. eigenvalues --    4.34469   4.43501   4.46034   4.50678   4.50914
 Alpha virt. eigenvalues --    4.57014   4.59879   4.64394   4.67474   4.75239
 Alpha virt. eigenvalues --    4.78039   4.83093   4.84405   4.85688   4.86155
 Alpha virt. eigenvalues --    4.86617   4.88196   4.89642   4.89797   4.94054
 Alpha virt. eigenvalues --    4.94093   4.95212   4.97923   5.08290   5.09730
 Alpha virt. eigenvalues --    5.15271   5.18713   5.32193   5.33068   5.33939
 Alpha virt. eigenvalues --    5.34987   5.38132   5.61303   5.77977   5.82301
 Alpha virt. eigenvalues --    5.83123   5.84089   5.86216   7.85862   7.87657
 Alpha virt. eigenvalues --    7.90777  17.22434  17.27182  17.29939  17.40265
 Alpha virt. eigenvalues --   17.42160  17.53101  17.60294  17.62093  17.65950
 Alpha virt. eigenvalues --   23.49181  23.54936  23.57678  23.58470  23.63468
 Alpha virt. eigenvalues --   23.71263  23.72974  23.73880  23.76475  23.81770
 Alpha virt. eigenvalues --   23.87876  23.89060  23.92862  23.95752  23.96057
 Alpha virt. eigenvalues --   23.96627  23.96809  23.97135  23.98236  23.99046
 Alpha virt. eigenvalues --   23.99256  23.99353  23.99924  24.02193  24.02209
 Alpha virt. eigenvalues --   24.02448  24.02717  24.03356  24.03418  24.04031
 Alpha virt. eigenvalues --   24.04403  24.04570  24.04712  24.06370  24.10284
 Alpha virt. eigenvalues --   24.11401  24.13278  24.13646  24.13969  24.14313
 Alpha virt. eigenvalues --   24.15971  24.16799  24.17632  24.18022  24.20134
 Alpha virt. eigenvalues --   24.21194  24.21763  24.22923  24.23245  24.23784
 Alpha virt. eigenvalues --   24.23965  24.24283  24.24615  24.25177  24.27767
 Alpha virt. eigenvalues --   24.28624  24.28787  24.29979  24.30460  24.30854
 Alpha virt. eigenvalues --   24.53494  35.59553  35.72657  35.77841  35.93228
 Alpha virt. eigenvalues --   49.98970  50.04877  50.05318  50.06465  50.07906
 Alpha virt. eigenvalues --   50.15806 189.16885 189.17809 189.21419
          Condensed to atoms (all electrons):
 Mulliken charges:
               1
     1  C   -0.385946
     2  C    0.041618
     3  C   -0.202944
     4  C   -0.192362
     5  S    0.344037
     6  C   -0.301258
     7  C    0.032905
     8  C    0.037425
     9  H    0.131826
    10  C    0.113153
    11  C   -0.121499
    12  C   -0.087729
    13  C    0.011599
    14  C    0.122959
    15  N   -0.515019
    16  S    0.568631
    17  N   -0.557868
    18  C    0.158081
    19  C   -0.029586
    20  C   -0.032524
    21  C   -0.118934
    22  C    0.167180
    23  C   -0.114305
    24  C   -0.074982
    25  H    0.105193
    26  H    0.131540
    27  N   -0.557628
    28  C    0.108342
    29  C   -0.088110
    30  C   -0.050044
    31  C   -0.137117
    32  C   -0.078437
    33  C   -0.088723
    34  H    0.125047
    35  H    0.106094
    36  C   -0.012304
    37  C   -0.065846
    38  C   -0.101477
    39  C    0.196217
    40  C   -0.110981
    41  C    0.105618
    42  O   -0.381790
    43  C   -0.157376
    44  H    0.110903
    45  H    0.128421
    46  H    0.135898
    47  H    0.117374
    48  O   -0.345417
    49  C   -0.183506
    50  H    0.143011
    51  H    0.130026
    52  H    0.125880
    53  H    0.111325
    54  H    0.107621
    55  H    0.118312
    56  H    0.124481
    57  C    0.093874
    58  C   -0.091387
    59  C   -0.030980
    60  C   -0.027582
    61  C   -0.074416
    62  C   -0.086629
    63  H    0.121024
    64  H    0.107867
    65  C   -0.114203
    66  C    0.203914
    67  C   -0.196822
    68  C    0.184883
    69  C   -0.103712
    70  C   -0.074174
    71  H    0.105103
    72  H    0.108868
    73  O   -0.345817
    74  C   -0.184117
    75  H    0.124901
    76  H    0.144323
    77  H    0.124898
    78  H    0.137026
    79  O   -0.357007
    80  C   -0.183987
    81  H    0.124111
    82  H    0.127251
    83  H    0.144760
    84  H    0.102726
    85  H    0.118063
    86  H    0.132265
    87  H    0.117244
    88  H    0.109225
    89  H    0.113041
    90  S    0.356323
    91  C   -0.323786
    92  C    0.021071
    93  H    0.103350
    94  C    0.037021
    95  C   -0.041290
    96  C   -0.064909
    97  C   -0.105514
    98  C   -0.043778
    99  C   -0.111296
   100  H    0.120371
   101  H    0.138035
   102  C    0.059649
   103  C   -0.231495
   104  C    0.030886
   105  N   -0.283098
   106  C    0.502179
   107  O   -0.332709
   108  O   -0.301332
   109  H    0.259778
   110  H    0.141037
   111  H    0.109466
   112  H    0.105920
   113  C   -0.241777
   114  H    0.140637
   115  H    0.125519
   116  H    0.132258
   117  C   -0.241668
   118  H    0.140510
   119  H    0.132421
   120  H    0.124683
 Sum of Mulliken charges =  -0.00000
 Mulliken charges with hydrogens summed into heavy atoms:
               1
     1  C   -0.385946
     2  C    0.041618
     3  C   -0.202944
     4  C   -0.192362
     5  S    0.344037
     6  C   -0.301258
     7  C    0.164732
     8  C    0.037425
    10  C    0.113153
    11  C   -0.008458
    12  C    0.021497
    13  C    0.011599
    14  C    0.122959
    15  N   -0.515019
    16  S    0.568631
    17  N   -0.557868
    18  C    0.158081
    19  C   -0.029586
    20  C    0.084720
    21  C    0.013331
    22  C    0.167180
    23  C    0.017234
    24  C    0.030212
    27  N   -0.557628
    28  C    0.108342
    29  C    0.036370
    30  C    0.068267
    31  C   -0.137117
    32  C    0.027657
    33  C    0.036324
    36  C   -0.012304
    37  C    0.041776
    38  C    0.009849
    39  C    0.196217
    40  C    0.006393
    41  C    0.105618
    42  O   -0.381790
    43  C    0.217847
    48  O   -0.345417
    49  C    0.215412
    57  C    0.093874
    58  C    0.026676
    59  C    0.071746
    60  C   -0.027582
    61  C    0.033451
    62  C    0.034396
    65  C   -0.114203
    66  C    0.203914
    67  C   -0.059796
    68  C    0.184883
    69  C    0.005156
    70  C    0.030928
    73  O   -0.345817
    74  C    0.210005
    79  O   -0.357007
    80  C    0.212136
    90  S    0.356323
    91  C   -0.323786
    92  C    0.124421
    94  C    0.037021
    95  C    0.064630
    96  C    0.044556
    97  C   -0.105514
    98  C    0.094256
    99  C    0.009075
   102  C    0.200686
   103  C   -0.231495
   104  C    0.030886
   105  N   -0.283098
   106  C    0.502179
   107  O   -0.332709
   108  O   -0.041555
   113  C    0.156637
   117  C    0.155946
 Electronic spatial extent (au):  <R**2>=         202362.9408
 Charge=             -0.0000 electrons
 Dipole moment (field-independent basis, Debye):
    X=            -12.4532    Y=             -3.4711    Z=              5.9654  Tot=             14.2379
 Quadrupole moment (field-independent basis, Debye-Ang):
   XX=           -546.0015   YY=           -407.0819   ZZ=           -442.6258
   XY=             -4.1777   XZ=             24.6429   YZ=            -14.3583
 Traceless Quadrupole moment (field-independent basis, Debye-Ang):
   XX=            -80.7651   YY=             58.1545   ZZ=             22.6106
   XY=             -4.1777   XZ=             24.6429   YZ=            -14.3583
 Octapole moment (field-independent basis, Debye-Ang**2):
  XXX=          -5653.1494  YYY=           -121.3819  ZZZ=             93.0336  XYY=           -676.2744
  XXY=           -532.3585  XXZ=           1032.7036  XZZ=            -64.3985  YZZ=            -58.5882
  YYZ=             82.6862  XYZ=             83.6645
 Hexadecapole moment (field-independent basis, Debye-Ang**3):
 XXXX=        -305072.0567 YYYY=         -31405.3154 ZZZZ=          -8475.6998 XXXY=          -4431.7980
 XXXZ=           7757.8346 YYYX=           1085.4188 YYYZ=           -536.6850 ZZZX=            791.0723
 ZZZY=            -76.9771 XXYY=         -36377.6427 XXZZ=         -41188.1263 YYZZ=          -7405.6879
 XXYZ=          -1050.3379 YYXZ=           -512.3620 ZZXY=           -190.0719
 N-N= 1.008117728652D+04 E-N=-3.003430853417D+04  KE= 4.201551148639D+03
 1\1\GINC-CN113\FOpt\RPBE1PBE\6-311G(d,p)\C61H46N4O6S3\R2532\10-Jul-202
 1\0\\#N PBE1PBE/6-311G(d,p) OPT\\C61H46O6N4S3\\0,1\C,-7.495840888,1.37
 54132745,2.6277138279\C,-8.5437690429,0.8514891848,1.662678483\C,-7.94
 69296165,0.2576809685,0.5633967324\C,-6.5263231788,0.3299941092,0.7089
 65592\S,-5.1213641109,-0.1397953276,-0.1481671212\C,-4.092090314,0.535
 8524218,1.1066979289\C,-4.8497633739,1.090588343,2.1230041698\C,-6.229
 210098,0.9725564288,1.8949357416\H,-4.3854442319,1.5543123912,2.981764
 6631\C,-2.6517539254,0.4566059254,0.9747114978\C,-2.0355889568,-0.1471
 937963,-0.1039730212\C,-0.6385237107,-0.2334889837,-0.2635920854\C,0.2
 684967456,0.270187155,0.6441412656\C,-0.3160202403,0.9092208791,1.7852
 043851\N,0.3577403713,1.4531135541,2.7977535578\S,-0.7329281268,2.0285
 405409,3.8464980366\N,-2.1034849124,1.6165171994,3.0808936621\C,-1.753
 6845761,1.0012212772,1.953492737\C,1.7172741907,0.1448342389,0.4461085
 72\C,2.6198094557,1.1328350999,0.8615597751\C,3.977211141,1.0123770968
 ,0.6269876293\C,4.4959436842,-0.1074598884,-0.0342939843\C,3.602904086
 6,-1.1038514685,-0.4478604821\C,2.2479995168,-0.9762079058,-0.20623730
 86\H,1.586242642,-1.7776169978,-0.518303072\H,3.9814278827,-1.98446963
 91,-0.9540297784\N,5.8725435689,-0.2297986631,-0.2724528552\C,6.497200
 3178,-1.4963777515,-0.2432575651\C,7.4574050759,-1.8361767282,-1.19973
 43939\C,8.0817723632,-3.0718341499,-1.1661796655\C,7.7628726537,-4.019
 989683,-0.1867133045\C,6.7999114363,-3.668092617,0.7656508393\C,6.1811
 354111,-2.4285129629,0.7475537877\H,5.451774319,-2.1725982482,1.508436
 2295\H,6.5535275047,-4.3690313485,1.5572208066\C,8.3839162211,-5.36009
 54153,-0.1656255747\C,7.6013062712,-6.4979218326,0.0771664167\C,8.1287
 397785,-7.7738663468,0.0840913902\C,9.489790756,-7.9620400927,-0.16225
 22747\C,10.2975072527,-6.8535477271,-0.3973819719\C,9.7480288262,-5.57
 4060001,-0.3985931201\O,10.6042100645,-4.5343922002,-0.6576602844\C,10
 .9845127294,-3.7958065998,0.4924716928\H,11.5110977536,-4.4375163601,1
 .2092351165\H,11.6572976778,-3.0093347391,0.1490199644\H,10.1165954213
 ,-3.3410367163,0.982053236\H,11.3593262938,-6.939277837,-0.5901013329\
 O,9.929675565,-9.2410464318,-0.1532217648\C,11.2957251952,-9.470218161
 3,-0.413014794\H,11.4334910182,-10.5498506655,-0.3689812407\H,11.58216
 98386,-9.1101262287,-1.4082408111\H,11.9344761528,-8.994715043,0.34095
 10539\H,7.5053289496,-8.6433409276,0.2567440808\H,6.5353521105,-6.3689
 486115,0.2354475541\H,8.8205259361,-3.3165420718,-1.9198086857\H,7.708
 0901027,-1.1221058125,-1.9767401762\C,6.655749725,0.9184539622,-0.5390
 572568\C,7.8981511905,1.0875848321,0.0755928919\C,8.6710641214,2.20508
 85135,-0.1910293984\C,8.2313618201,3.2005052101,-1.0707880455\C,6.9806
 873219,3.0228999243,-1.6720045394\C,6.2070648611,1.9003809138,-1.42287
 51113\H,5.2424511669,1.7849599106,-1.9052691867\H,6.6027614476,3.78492
 27913,-2.3461941873\C,9.0529873058,4.3817848253,-1.407702109\C,9.73993
 72437,5.1359688502,-0.4402935558\C,10.4863561262,6.259723797,-0.799198
 4291\C,10.5615915319,6.6496534294,-2.135887395\C,9.8903511176,5.917465
 5571,-3.1110592926\C,9.1555814631,4.8086387222,-2.7342243231\H,8.64996
 11563,4.2285629978,-3.4995070537\H,9.9666405553,6.2265309321,-4.146410
 7135\O,11.2657280742,7.7212371781,-2.5701511669\C,11.9643234192,8.4915
 659183,-1.6212947372\H,12.7266818108,7.8987119717,-1.101142561\H,12.45
 37296289,9.2874311585,-2.181466639\H,11.2859973544,8.9379682951,-0.883
 8669347\H,11.000522934,6.8282834226,-0.037959651\O,9.6230436852,4.7240
 800707,0.8457355376\C,10.2276544496,5.4882428203,1.8613252712\H,11.318
 7153452,5.5183817949,1.7525715913\H,9.8361375973,6.512323758,1.8828192
 918\H,9.9770230095,4.9913139462,2.797901756\H,9.6314654663,2.314335396
 8,0.2970666346\H,8.2578689701,0.3286146421,0.7620657506\H,4.651708608,
 1.7933946942,0.959022659\H,2.252216568,2.0059920586,1.3847361531\H,-0.
 2654415256,-0.7024514004,-1.1675670282\H,-2.6505713909,-0.575195133,-0
 .8896776599\S,-9.0912108362,-0.3452781762,-0.5546424601\C,-10.41598661
 37,0.2051108488,0.4519876577\C,-9.942239899,0.8203673676,1.5983027298\
 H,-10.60168656,1.2491003509,2.3428003995\C,-11.7903944285,-0.005013974
 7,0.0472095749\C,-12.841715084,0.1392245517,0.9690247032\C,-14.1500813
 402,-0.0492583755,0.5818458624\C,-14.4866537871,-0.3997390002,-0.73864
 29803\C,-13.4337747754,-0.5519377116,-1.6591685301\C,-12.1260544985,-0
 .355904932,-1.2736040738\H,-11.3412262281,-0.4619297938,-2.0155210173\
 H,-13.6378479358,-0.8182737641,-2.6887892768\C,-15.8816275842,-0.57673
 4048,-1.0401633609\C,-16.5252218265,-0.8993775836,-2.1907887172\C,-15.
 9013416765,-1.1492418322,-3.4377248062\N,-15.4851904247,-1.3698961746,
 -4.4959946162\C,-18.0227092134,-0.9997213963,-2.1425745214\O,-18.64998
 42918,-0.8070238725,-1.1395741828\O,-18.6344421893,-1.3193619452,-3.28
 99421476\H,-17.9948175753,-1.441915217,-4.0026066204\H,-16.5684233737,
 -0.4288998963,-0.2081484196\H,-14.9448156209,0.0644626451,1.3127741163
 \H,-12.6244930586,0.381732905,2.0026983457\C,-7.5891006183,2.898520903
 ,2.7831625014\H,-7.5215009302,3.3951021429,1.812506214\H,-8.5378647264
 ,3.1793204459,3.2501602571\H,-6.7770351226,3.2672320558,3.4163585356\C
 ,-7.5943952596,0.6828182211,3.9926328437\H,-7.5314519241,-0.4025108779
 ,3.88547575\H,-6.7819006755,1.0122978142,4.6465674908\H,-8.5427580592,
 0.9282024504,4.4799864293\\Version=ES64L-G16RevB.01\State=1-A\HF=-4213
 .8806162\RMSD=1.851e-09\RMSF=2.738e-06\Dipole=4.8991049,1.3575522,2.35
 24014\Quadrupole=-60.0757479,43.0440344,17.0317135,-3.1808402,-18.2809
 427,10.8530127\PG=C01 [X(C61H46N4O6S3)]\\@


 HE WHO LOVES TO READ, AND KNOWS HOW TO REFLECT,
 HAS LAID BY A PERPETUAL FEAST FOR HIS OLD AGE.
 -- UNCLE ESEK, "SCRIBNER'S MONTHLY", SEPT. 1880
 Job cpu time:       0 days 17 hours 43 minutes 42.9 seconds.
 Elapsed time:       0 days 17 hours 45 minutes 49.1 seconds.
 File lengths (MBytes):  RWF=   1625 Int=      0 D2E=      0 Chk=    195 Scr=      1
 Normal termination of Gaussian 16 at Sat Jul 10 06:27:20 2021.
