 Entering Gaussian System, Link 0=g16
 Input=mex.com
 Output=mex.out
 Initial command:
 /usr/local/apps/gaussian/g16-b01-avx2//g16/l1.exe "/tmp/r2532.885981.maple/Gau-37828.inp" -scrdir="/tmp/r2532.885981.maple/"
 Entering Link 1 = /usr/local/apps/gaussian/g16-b01-avx2//g16/l1.exe PID=     37829.
  
 Copyright (c) 1988-2017, Gaussian, Inc.  All Rights Reserved.
  
 This is part of the Gaussian(R) 16 program.  It is based on
 the Gaussian(R) 09 system (copyright 2009, Gaussian, Inc.),
 the Gaussian(R) 03 system (copyright 2003, Gaussian, Inc.),
 the Gaussian(R) 98 system (copyright 1998, Gaussian, Inc.),
 the Gaussian(R) 94 system (copyright 1995, Gaussian, Inc.),
 the Gaussian 92(TM) system (copyright 1992, Gaussian, Inc.),
 the Gaussian 90(TM) system (copyright 1990, Gaussian, Inc.),
 the Gaussian 88(TM) system (copyright 1988, Gaussian, Inc.),
 the Gaussian 86(TM) system (copyright 1986, Carnegie Mellon
 University), and the Gaussian 82(TM) system (copyright 1983,
 Carnegie Mellon University). Gaussian is a federally registered
 trademark of Gaussian, Inc.
  
 This software contains proprietary and confidential information,
 including trade secrets, belonging to Gaussian, Inc.
  
 This software is provided under written license and may be
 used, copied, transmitted, or stored only in accord with that
 written license.
  
 The following legend is applicable only to US Government
 contracts under FAR:
  
                    RESTRICTED RIGHTS LEGEND
  
 Use, reproduction and disclosure by the US Government is
 subject to restrictions as set forth in subparagraphs (a)
 and (c) of the Commercial Computer Software - Restricted
 Rights clause in FAR 52.227-19.
  
 Gaussian, Inc.
 340 Quinnipiac St., Bldg. 40, Wallingford CT 06492
  
  
 ---------------------------------------------------------------
 Warning -- This program may not be used in any manner that
 competes with the business of Gaussian, Inc. or will provide
 assistance to any competitor of Gaussian, Inc.  The licensee
 of this program is prohibited from giving any competitor of
 Gaussian, Inc. access to this program.  By using this program,
 the user acknowledges that Gaussian, Inc. is engaged in the
 business of creating and licensing software in the field of
 computational chemistry and represents and warrants to the
 licensee that it is not a competitor of Gaussian, Inc. and that
 it will not use this program in any manner prohibited above.
 ---------------------------------------------------------------
  

 Cite this work as:
 Gaussian 16, Revision B.01,
 M. J. Frisch, G. W. Trucks, H. B. Schlegel, G. E. Scuseria, 
 M. A. Robb, J. R. Cheeseman, G. Scalmani, V. Barone, 
 G. A. Petersson, H. Nakatsuji, X. Li, M. Caricato, A. V. Marenich, 
 J. Bloino, B. G. Janesko, R. Gomperts, B. Mennucci, H. P. Hratchian, 
 J. V. Ortiz, A. F. Izmaylov, J. L. Sonnenberg, D. Williams-Young, 
 F. Ding, F. Lipparini, F. Egidi, J. Goings, B. Peng, A. Petrone, 
 T. Henderson, D. Ranasinghe, V. G. Zakrzewski, J. Gao, N. Rega, 
 G. Zheng, W. Liang, M. Hada, M. Ehara, K. Toyota, R. Fukuda, 
 J. Hasegawa, M. Ishida, T. Nakajima, Y. Honda, O. Kitao, H. Nakai, 
 T. Vreven, K. Throssell, J. A. Montgomery, Jr., J. E. Peralta, 
 F. Ogliaro, M. J. Bearpark, J. J. Heyd, E. N. Brothers, K. N. Kudin, 
 V. N. Staroverov, T. A. Keith, R. Kobayashi, J. Normand, 
 K. Raghavachari, A. P. Rendell, J. C. Burant, S. S. Iyengar, 
 J. Tomasi, M. Cossi, J. M. Millam, M. Klene, C. Adamo, R. Cammi, 
 J. W. Ochterski, R. L. Martin, K. Morokuma, O. Farkas, 
 J. B. Foresman, and D. J. Fox, Gaussian, Inc., Wallingford CT, 2016.
 
 ******************************************
 Gaussian 16:  ES64L-G16RevB.01 20-Dec-2017
                 8-Jul-2021 
 ******************************************
 %mem=8gb
 ------------------------------------
 #N TD(NStates=10) PBE1PBE/6-31G(d,p)
 ------------------------------------
 1/38=1,172=1/1;
 2/12=2,17=6,18=5,40=1/2;
 3/5=1,6=6,7=101,11=9,25=1,30=1,74=-13/1,2,3,8;
 4//1;
 5/5=2,38=5/2;
 8/6=1,10=2,108=10/1;
 9/41=10,42=1,70=2/14;
 6/7=2,8=2,9=2,10=2/1;
 99/5=1,9=1/99;
 ----
 Name
 ----
 Symbolic Z-matrix:
 Charge =  0 Multiplicity = 1
 6                    -7.85487   6.02406  -0.40349 
 8                    -6.9301    5.44558   0.50729 
 6                    -6.55144   4.15151   0.3146 
 6                    -7.01308   3.3287   -0.71603 
 6                    -6.54892   2.01784  -0.81965 
 6                    -5.63931   1.50177   0.10224 
 7                    -5.1954    0.14668   0.00462 
 6                    -3.83143  -0.16641   0.01612 
 6                    -3.37685  -1.42332   0.46319 
 6                    -2.02874  -1.73047   0.4692 
 6                    -1.05804  -0.80801   0.0353 
 6                    -1.51945   0.44626  -0.40313 
 6                    -2.86594   0.76331  -0.41674 
 1                    -3.1827    1.73189  -0.78053 
 1                    -0.81097   1.17865  -0.77416 
 6                     0.35539  -1.15676   0.04023 
 16                    1.59829   0.07195   0.05968 
 6                     2.88992  -1.12803   0.04186 
 6                     2.33922  -2.39936   0.04197 
 6                     0.9337   -2.4134    0.03945 
 1                     0.35165  -3.32419   0.00432 
 1                     2.95258  -3.28684   0.02924 
 6                     4.27463  -0.72531   0.02782 
 6                     4.66333   0.61167  -0.04198 
 6                     5.99809   1.0487   -0.05879 
 6                     7.08187   0.17841  -0.0089 
 6                     6.74383  -1.21949   0.06787 
 6                     5.36506  -1.67348   0.0861 
 7                     5.25742  -3.00001   0.1624 
 16                    6.77499  -3.61312   0.20635 
 7                     7.62756  -2.21463   0.13189 
 6                     8.47963   0.52844  -0.0263 
 6                     9.11572   1.73216  -0.0983 
 6                     8.43282   2.9769   -0.21418 
 7                     7.85974   3.97801  -0.29075 
 6                     10.61293   1.84396  -0.16783 
 8                     11.17017   2.79436  -0.63991 
 8                     11.32641   0.79556   0.32049 
 1                     10.76477   0.21745   0.84941 
 1                     9.11986  -0.34882  -0.00524 
 1                     6.16939   2.11421  -0.11888 
 1                     3.89673   1.37542  -0.09279 
 1                    -1.71748  -2.69481   0.85323 
 1                    -4.09183  -2.15159   0.82293 
 6                    -6.18248  -0.88051  -0.10949 
 6                    -7.24314  -0.94913   0.79286 
 6                    -8.22611  -1.93116   0.67429 
 6                    -8.14618  -2.87624  -0.35165 
 6                    -7.08086  -2.8135   -1.25979 
 6                    -6.11918  -1.82388  -1.14572 
 1                    -5.30664  -1.77684  -1.86104 
 1                    -7.03922  -3.54581  -2.05684 
 8                    -9.0421   -3.88202  -0.55586 
 6                    -10.14042  -4.00272   0.33748 
 1                    -9.80465  -4.18371   1.36466 
 1                    -10.77721  -3.11122   0.31483 
 1                    -10.71257  -4.86124  -0.00985 
 1                    -9.03614  -1.95162   1.39075 
 1                    -7.30743  -0.2231    1.59455 
 6                    -5.19181   2.33078   1.14162 
 6                    -5.6331    3.63935   1.24094 
 1                    -5.29209   4.28604   2.04019 
 1                    -4.49192   1.94131   1.87145 
 1                    -6.90644   1.38699  -1.62476 
 1                    -7.72131   3.69391  -1.44742 
 1                    -8.0099    7.04544  -0.06037 
 1                    -7.45583   6.04221  -1.42376 
 1                    -8.81234   5.49115  -0.39674 
 
 Stoichiometry    C34H24N4O4S2
 Framework group  C1[X(C34H24N4O4S2)]
 Deg. of freedom   198
 Full point group                 C1      NOp   1
 Largest Abelian subgroup         C1      NOp   1
 Largest concise Abelian subgroup C1      NOp   1
                         Standard orientation:                         
 ---------------------------------------------------------------------
 Center     Atomic      Atomic             Coordinates (Angstroms)
 Number     Number       Type             X           Y           Z
 ---------------------------------------------------------------------
      1          6           0        7.854865    6.024058    0.403487
      2          8           0        6.930098    5.445576   -0.507285
      3          6           0        6.551439    4.151509   -0.314600
      4          6           0        7.013084    3.328698    0.716028
      5          6           0        6.548922    2.017843    0.819648
      6          6           0        5.639310    1.501770   -0.102244
      7          7           0        5.195402    0.146676   -0.004616
      8          6           0        3.831426   -0.166409   -0.016121
      9          6           0        3.376849   -1.423317   -0.463194
     10          6           0        2.028745   -1.730473   -0.469197
     11          6           0        1.058040   -0.808007   -0.035304
     12          6           0        1.519446    0.446258    0.403126
     13          6           0        2.865936    0.763307    0.416735
     14          1           0        3.182701    1.731893    0.780526
     15          1           0        0.810972    1.178648    0.774162
     16          6           0       -0.355386   -1.156756   -0.040233
     17         16           0       -1.598290    0.071945   -0.059677
     18          6           0       -2.889919   -1.128032   -0.041858
     19          6           0       -2.339225   -2.399356   -0.041965
     20          6           0       -0.933701   -2.413395   -0.039446
     21          1           0       -0.351646   -3.324188   -0.004324
     22          1           0       -2.952581   -3.286838   -0.029235
     23          6           0       -4.274635   -0.725308   -0.027824
     24          6           0       -4.663327    0.611667    0.041976
     25          6           0       -5.998093    1.048696    0.058794
     26          6           0       -7.081872    0.178411    0.008897
     27          6           0       -6.743828   -1.219490   -0.067869
     28          6           0       -5.365060   -1.673476   -0.086099
     29          7           0       -5.257420   -3.000011   -0.162402
     30         16           0       -6.774991   -3.613123   -0.206354
     31          7           0       -7.627557   -2.214635   -0.131885
     32          6           0       -8.479634    0.528438    0.026300
     33          6           0       -9.115721    1.732156    0.098297
     34          6           0       -8.432816    2.976899    0.214181
     35          7           0       -7.859740    3.978005    0.290750
     36          6           0      -10.612934    1.843960    0.167833
     37          8           0      -11.170170    2.794364    0.639908
     38          8           0      -11.326407    0.795559   -0.320491
     39          1           0      -10.764773    0.217454   -0.849414
     40          1           0       -9.119864   -0.348824    0.005237
     41          1           0       -6.169390    2.114206    0.118876
     42          1           0       -3.896732    1.375424    0.092792
     43          1           0        1.717481   -2.694805   -0.853227
     44          1           0        4.091832   -2.151590   -0.822929
     45          6           0        6.182485   -0.880510    0.109488
     46          6           0        7.243138   -0.949132   -0.792860
     47          6           0        8.226109   -1.931155   -0.674294
     48          6           0        8.146178   -2.876241    0.351647
     49          6           0        7.080856   -2.813495    1.259788
     50          6           0        6.119176   -1.823881    1.145719
     51          1           0        5.306643   -1.776838    1.861042
     52          1           0        7.039224   -3.545811    2.056842
     53          8           0        9.042096   -3.882022    0.555863
     54          6           0       10.140418   -4.002717   -0.337475
     55          1           0        9.804647   -4.183713   -1.364656
     56          1           0       10.777211   -3.111220   -0.314833
     57          1           0       10.712574   -4.861240    0.009852
     58          1           0        9.036138   -1.951624   -1.390748
     59          1           0        7.307425   -0.223104   -1.594546
     60          6           0        5.191810    2.330782   -1.141623
     61          6           0        5.633098    3.639345   -1.240941
     62          1           0        5.292087    4.286042   -2.040189
     63          1           0        4.491923    1.941314   -1.871452
     64          1           0        6.906439    1.386992    1.624756
     65          1           0        7.721313    3.693910    1.447422
     66          1           0        8.009898    7.045443    0.060366
     67          1           0        7.455829    6.042205    1.423759
     68          1           0        8.812336    5.491153    0.396740
 ---------------------------------------------------------------------
 Rotational constants (GHZ):           0.1203711           0.0186880           0.0163501
 Standard basis: 6-31G(d,p) (6D, 7F)
 There are   788 symmetry adapted cartesian basis functions of A   symmetry.
 There are   788 symmetry adapted basis functions of A   symmetry.
   788 basis functions,  1448 primitive gaussians,   788 cartesian basis functions
   160 alpha electrons      160 beta electrons
       nuclear repulsion energy      4738.9108355456 Hartrees.
 NAtoms=   68 NActive=   68 NUniq=   68 SFac= 1.00D+00 NAtFMM=   60 NAOKFM=T Big=T
 Integral buffers will be    131072 words long.
 Regular integral format.
 Two-electron integral symmetry is turned on.
 One-electron integrals computed using PRISM.
 NBasis=   788 RedAO= T EigKep=  2.48D-04  NBF=   788
 NBsUse=   788 1.00D-06 EigRej= -1.00D+00 NBFU=   788
 ExpMin= 1.17D-01 ExpMax= 2.19D+04 ExpMxC= 3.30D+03 IAcc=3 IRadAn=         5 AccDes= 0.00D+00
 Harris functional with IExCor= 1009 and IRadAn=       5 diagonalized for initial guess.
 HarFok:  IExCor= 1009 AccDes= 0.00D+00 IRadAn=         5 IDoV= 1 UseB2=F ITyADJ=14
 ICtDFT=  3500011 ScaDFX=  1.000000  1.000000  1.000000  1.000000
 FoFCou: FMM=F IPFlag=           0 FMFlag=      100000 FMFlg1=        2001
         NFxFlg=           0 DoJE=T BraDBF=F KetDBF=T FulRan=T
         wScrn=  0.000000 ICntrl=       500 IOpCl=  0 I1Cent=   200000004 NGrid=           0
         NMat0=    1 NMatS0=      1 NMatT0=    0 NMatD0=    1 NMtDS0=    0 NMtDT0=    0
 Petite list used in FoFCou.
 Requested convergence on RMS density matrix=1.00D-08 within 128 cycles.
 Requested convergence on MAX density matrix=1.00D-06.
 Requested convergence on             energy=1.00D-06.
 No special actions if energy rises.
 Integral accuracy reduced to 1.0D-05 until final iterations.
 EnCoef did     5 forward-backward iterations
 Initial convergence to 1.0D-05 achieved.  Increase integral accuracy.
 SCF Done:  E(RPBE1PBE) =  -2623.95034650     A.U. after   19 cycles
            NFock= 19  Conv=0.75D-08     -V/T= 2.0069
 DoSCS=F DFT=T ScalE2(SS,OS)=  1.000000  1.000000
 ExpMin= 1.17D-01 ExpMax= 2.19D+04 ExpMxC= 3.30D+03 IAcc=3 IRadAn=         5 AccDes= 0.00D+00
 HarFok:  IExCor=  205 AccDes= 0.00D+00 IRadAn=         5 IDoV=-2 UseB2=F ITyADJ=14
 ICtDFT= 12500011 ScaDFX=  1.000000  1.000000  1.000000  1.000000
 GSVD:  LWork=       -3120 too small for GESVD, short by       14300 words or       14300 for optimal perf.
 Range of M.O.s used for correlation:    53   788
 NBasis=   788 NAE=   160 NBE=   160 NFC=    52 NFV=     0
 NROrb=    736 NOA=   108 NOB=   108 NVA=   628 NVB=   628

 **** Warning!!: The smallest alpha delta epsilon is  0.74299790D-01

 Orbital symmetries:
       Occupied  (A) (A) (A) (A) (A) (A) (A) (A) (A) (A) (A) (A)
                 (A) (A) (A) (A) (A) (A) (A) (A) (A) (A) (A) (A)
                 (A) (A) (A) (A) (A) (A) (A) (A) (A) (A) (A) (A)
                 (A) (A) (A) (A) (A) (A) (A) (A) (A) (A) (A) (A)
                 (A) (A) (A) (A) (A) (A) (A) (A) (A) (A) (A) (A)
                 (A) (A) (A) (A) (A) (A) (A) (A) (A) (A) (A) (A)
                 (A) (A) (A) (A) (A) (A) (A) (A) (A) (A) (A) (A)
                 (A) (A) (A) (A) (A) (A) (A) (A) (A) (A) (A) (A)
                 (A) (A) (A) (A) (A) (A) (A) (A) (A) (A) (A) (A)
                 (A) (A) (A) (A) (A) (A) (A) (A) (A) (A) (A) (A)
                 (A) (A) (A) (A) (A) (A) (A) (A) (A) (A) (A) (A)
                 (A) (A) (A) (A) (A) (A) (A) (A) (A) (A) (A) (A)
                 (A) (A) (A) (A) (A) (A) (A) (A) (A) (A) (A) (A)
                 (A) (A) (A) (A)
       Virtual   (A) (A) (A) (A) (A) (A) (A) (A) (A) (A) (A) (A)
                 (A) (A) (A) (A) (A) (A) (A) (A) (A) (A) (A) (A)
                 (A) (A) (A) (A) (A) (A) (A) (A) (A) (A) (A) (A)
                 (A) (A) (A) (A) (A) (A) (A) (A) (A) (A) (A) (A)
                 (A) (A) (A) (A) (A) (A) (A) (A) (A) (A) (A) (A)
                 (A) (A) (A) (A) (A) (A) (A) (A) (A) (A) (A) (A)
                 (A) (A) (A) (A) (A) (A) (A) (A) (A) (A) (A) (A)
                 (A) (A) (A) (A) (A) (A) (A) (A) (A) (A) (A) (A)
                 (A) (A) (A) (A) (A) (A) (A) (A) (A) (A) (A) (A)
                 (A) (A) (A) (A) (A) (A) (A) (A) (A) (A) (A) (A)
                 (A) (A) (A) (A) (A) (A) (A) (A) (A) (A) (A) (A)
                 (A) (A) (A) (A) (A) (A) (A) (A) (A) (A) (A) (A)
                 (A) (A) (A) (A) (A) (A) (A) (A) (A) (A) (A) (A)
                 (A) (A) (A) (A) (A) (A) (A) (A) (A) (A) (A) (A)
                 (A) (A) (A) (A) (A) (A) (A) (A) (A) (A) (A) (A)
                 (A) (A) (A) (A) (A) (A) (A) (A) (A) (A) (A) (A)
                 (A) (A) (A) (A) (A) (A) (A) (A) (A) (A) (A) (A)
                 (A) (A) (A) (A) (A) (A) (A) (A) (A) (A) (A) (A)
                 (A) (A) (A) (A) (A) (A) (A) (A) (A) (A) (A) (A)
                 (A) (A) (A) (A) (A) (A) (A) (A) (A) (A) (A) (A)
                 (A) (A) (A) (A) (A) (A) (A) (A) (A) (A) (A) (A)
                 (A) (A) (A) (A) (A) (A) (A) (A) (A) (A) (A) (A)
                 (A) (A) (A) (A) (A) (A) (A) (A) (A) (A) (A) (A)
                 (A) (A) (A) (A) (A) (A) (A) (A) (A) (A) (A) (A)
                 (A) (A) (A) (A) (A) (A) (A) (A) (A) (A) (A) (A)
                 (A) (A) (A) (A) (A) (A) (A) (A) (A) (A) (A) (A)
                 (A) (A) (A) (A) (A) (A) (A) (A) (A) (A) (A) (A)
                 (A) (A) (A) (A) (A) (A) (A) (A) (A) (A) (A) (A)
                 (A) (A) (A) (A) (A) (A) (A) (A) (A) (A) (A) (A)
                 (A) (A) (A) (A) (A) (A) (A) (A) (A) (A) (A) (A)
                 (A) (A) (A) (A) (A) (A) (A) (A) (A) (A) (A) (A)
                 (A) (A) (A) (A) (A) (A) (A) (A) (A) (A) (A) (A)
                 (A) (A) (A) (A) (A) (A) (A) (A) (A) (A) (A) (A)
                 (A) (A) (A) (A) (A) (A) (A) (A) (A) (A) (A) (A)
                 (A) (A) (A) (A) (A) (A) (A) (A) (A) (A) (A) (A)
                 (A) (A) (A) (A) (A) (A) (A) (A) (A) (A) (A) (A)
                 (A) (A) (A) (A) (A) (A) (A) (A) (A) (A) (A) (A)
                 (A) (A) (A) (A) (A) (A) (A) (A) (A) (A) (A) (A)
                 (A) (A) (A) (A) (A) (A) (A) (A) (A) (A) (A) (A)
                 (A) (A) (A) (A) (A) (A) (A) (A) (A) (A) (A) (A)
                 (A) (A) (A) (A) (A) (A) (A) (A) (A) (A) (A) (A)
                 (A) (A) (A) (A) (A) (A) (A) (A) (A) (A) (A) (A)
                 (A) (A) (A) (A) (A) (A) (A) (A) (A) (A) (A) (A)
                 (A) (A) (A) (A) (A) (A) (A) (A) (A) (A) (A) (A)
                 (A) (A) (A) (A) (A) (A) (A) (A) (A) (A) (A) (A)
                 (A) (A) (A) (A) (A) (A) (A) (A) (A) (A) (A) (A)
                 (A) (A) (A) (A) (A) (A) (A) (A) (A) (A) (A) (A)
                 (A) (A) (A) (A) (A) (A) (A) (A) (A) (A) (A) (A)
                 (A) (A) (A) (A) (A) (A) (A) (A) (A) (A) (A) (A)
                 (A) (A) (A) (A) (A) (A) (A) (A) (A) (A) (A) (A)
                 (A) (A) (A) (A) (A) (A) (A) (A) (A) (A) (A) (A)
                 (A) (A) (A) (A) (A) (A) (A) (A) (A) (A) (A) (A)
                 (A) (A) (A) (A)
    40 initial guesses have been made.
 Convergence on wavefunction:    0.001000000000000
 Iteration     1 Dimension    40 NMult     0 NNew     40
 CISAX will form    40 AO SS matrices at one time.
 New state      6 was old state      8
 New state      8 was old state     10
 New state     10 was old state     14
 Iteration     2 Dimension    60 NMult    40 NNew     20
 New state      8 was old state      9
 New state      9 was old state      8
 Iteration     3 Dimension    80 NMult    60 NNew     20
 Iteration     4 Dimension   100 NMult    80 NNew     20
 Iteration     5 Dimension   120 NMult   100 NNew     20
 Iteration     6 Dimension   130 NMult   120 NNew     10
 Iteration     7 Dimension   134 NMult   130 NNew      4
 Iteration     8 Dimension   136 NMult   134 NNew      2
 Iteration     9 Dimension   138 NMult   136 NNew      2
 Iteration    10 Dimension   140 NMult   138 NNew      2
 ***********************************************************************
 Excited states from <AA,BB:AA,BB> singles matrix:
 ***********************************************************************
 
 Ground to excited state transition densities written to RWF  633
 Ground to excited state transition electric dipole moments (Au):
       state          X           Y           Z        Dip. S.      Osc.
         1         3.9705     -0.1360     -0.0135     15.7839      0.6730
         2        -2.2456      0.6756      0.0393      5.5008      0.3422
         3         2.1293     -0.4665     -0.0322      4.7526      0.3399
         4         0.0984      0.2079     -0.0085      0.0530      0.0042
         5         1.3852     -0.1417     -0.0175      1.9393      0.1575
         6         1.7820      0.7469      0.0426      3.7351      0.3144
         7         0.4626      0.0172     -0.0150      0.2145      0.0188
         8        -0.7575      0.9877      0.0792      1.5555      0.1411
         9         0.1429     -0.3006      0.1237      0.1261      0.0116
        10        -0.1471     -0.0046      0.3867      0.1712      0.0161
 Ground to excited state transition velocity dipole moments (Au):
       state          X           Y           Z        Dip. S.      Osc.
         1        -0.2491      0.0068      0.0004      0.0621      0.6472
         2         0.2127     -0.0599     -0.0035      0.0489      0.3491
         3        -0.2190      0.0528      0.0034      0.0507      0.3154
         4        -0.0127     -0.0227      0.0012      0.0007      0.0038
         5        -0.1716      0.0185      0.0027      0.0298      0.1629
         6        -0.2182     -0.0936     -0.0062      0.0564      0.2977
         7        -0.0567      0.0006      0.0017      0.0032      0.0164
         8         0.0960     -0.1334     -0.0126      0.0272      0.1331
         9        -0.0170      0.0392     -0.0248      0.0024      0.0118
        10         0.0209     -0.0036     -0.0712      0.0055      0.0260
 Ground to excited state transition magnetic dipole moments (Au):
       state          X           Y           Z
         1        -0.0248      0.0354     -0.8124
         2        -0.0077     -0.0498      0.9816
         3        -0.0224      0.0607     -1.2977
         4        -0.0078     -0.0091     -0.3993
         5        -0.0797      0.0191     -0.8589
         6        -0.0805     -0.0039     -0.2256
         7        -0.0039      0.0078     -0.5957
         8        -0.0402     -0.0392      1.5304
         9         0.0115      0.2867      0.4361
        10        -0.0803      0.8471      0.8472
 Ground to excited state transition velocity quadrupole moments (Au):
       state          XX          YY          ZZ          XY          XZ          YZ
         1         1.1950     -0.0378     -0.0250     -0.2303     -0.0224      0.0267
         2        -3.5085     -0.1708      0.0094      0.6159      0.0405     -0.0127
         3         1.7036     -0.0740     -0.0200     -0.9805     -0.0692      0.0210
         4         0.3416     -0.1078     -0.0036     -0.5575     -0.0207     -0.0022
         5        -0.0891     -0.2129     -0.0314     -0.6013     -0.0579      0.0306
         6        -3.5016     -0.3796     -0.0422      0.6539      0.0337      0.0333
         7         0.1370      0.0323     -0.0203     -0.1850     -0.0301      0.0002
         8        -4.7813     -0.3018     -0.0152      1.7445      0.0596     -0.0087
         9         1.1240      0.0747      0.0092     -0.2592     -0.3249     -0.0120
        10        -0.1071      0.0866      0.0006      0.1718     -0.6900     -0.0273
 <0|del|b> * <b|rxdel|0> + <0|del|b> * <b|delr+rdel|0>
 Rotatory Strengths (R) in cgs (10**-40 erg-esu-cm/Gauss)
       state          XX          YY          ZZ    R(velocity)    E-M Angle
         1        -0.0072     -3.8598     71.4811     22.5380       88.27
         2        -0.6540    -21.3543      6.1252     -5.2944       90.55
         3        -2.9593     -2.5547     29.8519      8.1126       89.28
         4        -4.2534      0.9492      2.2109     -0.3644       91.02
         5        -7.1929     22.4477     52.8369     22.6972       85.48
         6         2.4645     44.0268     61.6980     36.0631       70.15
         7        -3.5371     -1.3146      0.5911     -1.4202       91.34
         8       -72.7750     -5.2148    -14.9133    -30.9677       94.06
         9        50.2776    -44.2357     -4.8565      0.3952       89.49
        10      -195.5369   -125.9279     -4.2089   -108.5579      136.85
 1/2[<0|r|b>*<b|rxdel|0> + (<0|rxdel|b>*<b|r|0>)*]
 Rotatory Strengths (R) in cgs (10**-40 erg-esu-cm/Gauss)
       state          XX          YY          ZZ     R(length)
         1        69.6880      3.4079     -7.7484     21.7825
         2       -12.3069     23.8161    -27.2978     -5.2629
         3        33.7266     20.0097    -29.5348      8.0671
         4         0.5414      1.3399     -2.4051     -0.1746
         5        78.0803      1.9182    -10.6502     23.1161
         6       101.4686      2.0499      6.8045     36.7743
         7         1.2893     -0.0951     -6.3079     -1.7046
         8       -21.5294     27.3847    -85.7060    -26.6169
         9        -1.1624     60.9505    -38.1418      7.2154
        10        -8.3534      2.7339   -231.7040    -79.1078
  1/2[<0|del|b>*<b|r|0> + (<0|r|b>*<b|del|0>)*] (Au)
       state          X           Y           Z        Dip. S.   Osc.(frdel)
         1        -0.9890     -0.0009     -0.0000      0.9899      0.6600
         2        -0.4777     -0.0404     -0.0001      0.5183      0.3455
         3        -0.4663     -0.0246     -0.0001      0.4910      0.3273
         4        -0.0012     -0.0047     -0.0000      0.0060      0.0040
         5        -0.2376     -0.0026     -0.0000      0.2403      0.1602
         6        -0.3887     -0.0699     -0.0003      0.4589      0.3059
         7        -0.0262      0.0000     -0.0000      0.0263      0.0175
         8        -0.0727     -0.1317     -0.0010      0.2054      0.1370
         9        -0.0024     -0.0118     -0.0031      0.0173      0.0115
        10        -0.0031      0.0000     -0.0275      0.0306      0.0204

 Excitation energies and oscillator strengths:
 
 Excited State   1:      Singlet-A      1.7403 eV  712.42 nm  f=0.6730  <S**2>=0.000
     160 ->161         0.70685
 This state for optimization and/or second-order correction.
 Total Energy, E(TD-HF/TD-DFT) =  -2623.88639095    
 Copying the excited state density for this state as the 1-particle RhoCI density.
 
 Excited State   2:      Singlet-A      2.5389 eV  488.34 nm  f=0.3422  <S**2>=0.000
     159 ->161         0.68625
     160 ->162         0.11733
 
 Excited State   3:      Singlet-A      2.9189 eV  424.76 nm  f=0.3399  <S**2>=0.000
     159 ->161        -0.11998
     159 ->162        -0.11083
     160 ->162         0.67575
     160 ->163         0.10854
 
 Excited State   4:      Singlet-A      3.2508 eV  381.39 nm  f=0.0042  <S**2>=0.000
     158 ->161         0.70008
 
 Excited State   5:      Singlet-A      3.3157 eV  373.94 nm  f=0.1575  <S**2>=0.000
     157 ->161         0.58123
     160 ->163         0.36339
 
 Excited State   6:      Singlet-A      3.4358 eV  360.86 nm  f=0.3144  <S**2>=0.000
     154 ->161        -0.11563
     157 ->161        -0.31597
     159 ->162        -0.19205
     160 ->162        -0.13762
     160 ->163         0.55417
 
 Excited State   7:      Singlet-A      3.5728 eV  347.02 nm  f=0.0188  <S**2>=0.000
     154 ->161         0.49821
     156 ->161         0.41540
     159 ->162        -0.23051
 
 Excited State   8:      Singlet-A      3.7015 eV  334.95 nm  f=0.1411  <S**2>=0.000
     156 ->161         0.21413
     157 ->161        -0.18492
     159 ->162         0.58901
     160 ->163         0.16503
 
 Excited State   9:      Singlet-A      3.7534 eV  330.32 nm  f=0.0116  <S**2>=0.000
     153 ->161         0.23194
     154 ->161        -0.36003
     155 ->161         0.11040
     156 ->161         0.40965
     159 ->162        -0.10803
     160 ->164         0.32763
 
 Excited State  10:      Singlet-A      3.8448 eV  322.47 nm  f=0.0161  <S**2>=0.000
     153 ->161        -0.12901
     154 ->161         0.16756
     156 ->161        -0.26663
     160 ->164         0.60264
 SavETr:  write IOETrn=   770 NScale= 10 NData=  16 NLR=1 NState=   10 LETran=     190.

 **********************************************************************

            Population analysis using the SCF Density.

 **********************************************************************

 Orbital symmetries:
       Occupied  (A) (A) (A) (A) (A) (A) (A) (A) (A) (A) (A) (A)
                 (A) (A) (A) (A) (A) (A) (A) (A) (A) (A) (A) (A)
                 (A) (A) (A) (A) (A) (A) (A) (A) (A) (A) (A) (A)
                 (A) (A) (A) (A) (A) (A) (A) (A) (A) (A) (A) (A)
                 (A) (A) (A) (A) (A) (A) (A) (A) (A) (A) (A) (A)
                 (A) (A) (A) (A) (A) (A) (A) (A) (A) (A) (A) (A)
                 (A) (A) (A) (A) (A) (A) (A) (A) (A) (A) (A) (A)
                 (A) (A) (A) (A) (A) (A) (A) (A) (A) (A) (A) (A)
                 (A) (A) (A) (A) (A) (A) (A) (A) (A) (A) (A) (A)
                 (A) (A) (A) (A) (A) (A) (A) (A) (A) (A) (A) (A)
                 (A) (A) (A) (A) (A) (A) (A) (A) (A) (A) (A) (A)
                 (A) (A) (A) (A) (A) (A) (A) (A) (A) (A) (A) (A)
                 (A) (A) (A) (A) (A) (A) (A) (A) (A) (A) (A) (A)
                 (A) (A) (A) (A)
       Virtual   (A) (A) (A) (A) (A) (A) (A) (A) (A) (A) (A) (A)
                 (A) (A) (A) (A) (A) (A) (A) (A) (A) (A) (A) (A)
                 (A) (A) (A) (A) (A) (A) (A) (A) (A) (A) (A) (A)
                 (A) (A) (A) (A) (A) (A) (A) (A) (A) (A) (A) (A)
                 (A) (A) (A) (A) (A) (A) (A) (A) (A) (A) (A) (A)
                 (A) (A) (A) (A) (A) (A) (A) (A) (A) (A) (A) (A)
                 (A) (A) (A) (A) (A) (A) (A) (A) (A) (A) (A) (A)
                 (A) (A) (A) (A) (A) (A) (A) (A) (A) (A) (A) (A)
                 (A) (A) (A) (A) (A) (A) (A) (A) (A) (A) (A) (A)
                 (A) (A) (A) (A) (A) (A) (A) (A) (A) (A) (A) (A)
                 (A) (A) (A) (A) (A) (A) (A) (A) (A) (A) (A) (A)
                 (A) (A) (A) (A) (A) (A) (A) (A) (A) (A) (A) (A)
                 (A) (A) (A) (A) (A) (A) (A) (A) (A) (A) (A) (A)
                 (A) (A) (A) (A) (A) (A) (A) (A) (A) (A) (A) (A)
                 (A) (A) (A) (A) (A) (A) (A) (A) (A) (A) (A) (A)
                 (A) (A) (A) (A) (A) (A) (A) (A) (A) (A) (A) (A)
                 (A) (A) (A) (A) (A) (A) (A) (A) (A) (A) (A) (A)
                 (A) (A) (A) (A) (A) (A) (A) (A) (A) (A) (A) (A)
                 (A) (A) (A) (A) (A) (A) (A) (A) (A) (A) (A) (A)
                 (A) (A) (A) (A) (A) (A) (A) (A) (A) (A) (A) (A)
                 (A) (A) (A) (A) (A) (A) (A) (A) (A) (A) (A) (A)
                 (A) (A) (A) (A) (A) (A) (A) (A) (A) (A) (A) (A)
                 (A) (A) (A) (A) (A) (A) (A) (A) (A) (A) (A) (A)
                 (A) (A) (A) (A) (A) (A) (A) (A) (A) (A) (A) (A)
                 (A) (A) (A) (A) (A) (A) (A) (A) (A) (A) (A) (A)
                 (A) (A) (A) (A) (A) (A) (A) (A) (A) (A) (A) (A)
                 (A) (A) (A) (A) (A) (A) (A) (A) (A) (A) (A) (A)
                 (A) (A) (A) (A) (A) (A) (A) (A) (A) (A) (A) (A)
                 (A) (A) (A) (A) (A) (A) (A) (A) (A) (A) (A) (A)
                 (A) (A) (A) (A) (A) (A) (A) (A) (A) (A) (A) (A)
                 (A) (A) (A) (A) (A) (A) (A) (A) (A) (A) (A) (A)
                 (A) (A) (A) (A) (A) (A) (A) (A) (A) (A) (A) (A)
                 (A) (A) (A) (A) (A) (A) (A) (A) (A) (A) (A) (A)
                 (A) (A) (A) (A) (A) (A) (A) (A) (A) (A) (A) (A)
                 (A) (A) (A) (A) (A) (A) (A) (A) (A) (A) (A) (A)
                 (A) (A) (A) (A) (A) (A) (A) (A) (A) (A) (A) (A)
                 (A) (A) (A) (A) (A) (A) (A) (A) (A) (A) (A) (A)
                 (A) (A) (A) (A) (A) (A) (A) (A) (A) (A) (A) (A)
                 (A) (A) (A) (A) (A) (A) (A) (A) (A) (A) (A) (A)
                 (A) (A) (A) (A) (A) (A) (A) (A) (A) (A) (A) (A)
                 (A) (A) (A) (A) (A) (A) (A) (A) (A) (A) (A) (A)
                 (A) (A) (A) (A) (A) (A) (A) (A) (A) (A) (A) (A)
                 (A) (A) (A) (A) (A) (A) (A) (A) (A) (A) (A) (A)
                 (A) (A) (A) (A) (A) (A) (A) (A) (A) (A) (A) (A)
                 (A) (A) (A) (A) (A) (A) (A) (A) (A) (A) (A) (A)
                 (A) (A) (A) (A) (A) (A) (A) (A) (A) (A) (A) (A)
                 (A) (A) (A) (A) (A) (A) (A) (A) (A) (A) (A) (A)
                 (A) (A) (A) (A) (A) (A) (A) (A) (A) (A) (A) (A)
                 (A) (A) (A) (A) (A) (A) (A) (A) (A) (A) (A) (A)
                 (A) (A) (A) (A) (A) (A) (A) (A) (A) (A) (A) (A)
                 (A) (A) (A) (A) (A) (A) (A) (A) (A) (A) (A) (A)
                 (A) (A) (A) (A) (A) (A) (A) (A) (A) (A) (A) (A)
                 (A) (A) (A) (A)
 The electronic state is 1-A.
 Alpha  occ. eigenvalues --  -89.14586 -89.07734 -19.27450 -19.26758 -19.26666
 Alpha  occ. eigenvalues --  -19.21300 -14.45646 -14.45436 -14.44496 -14.40018
 Alpha  occ. eigenvalues --  -10.37486 -10.31405 -10.31273 -10.30727 -10.30652
 Alpha  occ. eigenvalues --  -10.29765 -10.29690 -10.29627 -10.29537 -10.29525
 Alpha  occ. eigenvalues --  -10.29518 -10.29446 -10.29004 -10.28355 -10.28301
 Alpha  occ. eigenvalues --  -10.28190 -10.27832 -10.27436 -10.26840 -10.26174
 Alpha  occ. eigenvalues --  -10.25639 -10.25352 -10.25294 -10.25216 -10.25157
 Alpha  occ. eigenvalues --  -10.25122 -10.25097 -10.25057 -10.24952 -10.24878
 Alpha  occ. eigenvalues --  -10.24590 -10.24586 -10.24555 -10.24502  -8.10868
 Alpha  occ. eigenvalues --   -8.04515  -6.04730  -6.04144  -6.03906  -5.98257
 Alpha  occ. eigenvalues --   -5.97893  -5.97517  -1.13388  -1.10373  -1.10287
 Alpha  occ. eigenvalues --   -1.06734  -1.05222  -1.00285  -0.94109  -0.93608
 Alpha  occ. eigenvalues --   -0.92795  -0.90776  -0.89195  -0.89146  -0.87345
 Alpha  occ. eigenvalues --   -0.86142  -0.82059  -0.80465  -0.79981  -0.79622
 Alpha  occ. eigenvalues --   -0.78542  -0.78419  -0.78021  -0.76956  -0.76418
 Alpha  occ. eigenvalues --   -0.74724  -0.73004  -0.71806  -0.70139  -0.67793
 Alpha  occ. eigenvalues --   -0.65903  -0.65552  -0.65103  -0.64381  -0.64135
 Alpha  occ. eigenvalues --   -0.63905  -0.62696  -0.62008  -0.60149  -0.59278
 Alpha  occ. eigenvalues --   -0.58161  -0.57545  -0.56562  -0.56503  -0.55339
 Alpha  occ. eigenvalues --   -0.54511  -0.53809  -0.53693  -0.52453  -0.51602
 Alpha  occ. eigenvalues --   -0.51256  -0.50261  -0.49192  -0.49095  -0.48770
 Alpha  occ. eigenvalues --   -0.48396  -0.47857  -0.47159  -0.47075  -0.46970
 Alpha  occ. eigenvalues --   -0.46901  -0.45810  -0.45575  -0.44999  -0.44651
 Alpha  occ. eigenvalues --   -0.44473  -0.44371  -0.44067  -0.43446  -0.43056
 Alpha  occ. eigenvalues --   -0.42838  -0.42084  -0.41261  -0.41208  -0.40870
 Alpha  occ. eigenvalues --   -0.40646  -0.40544  -0.40292  -0.40240  -0.40177
 Alpha  occ. eigenvalues --   -0.39595  -0.39068  -0.38757  -0.37920  -0.37858
 Alpha  occ. eigenvalues --   -0.37369  -0.37180  -0.36829  -0.35575  -0.35299
 Alpha  occ. eigenvalues --   -0.34808  -0.34742  -0.34621  -0.34535  -0.34061
 Alpha  occ. eigenvalues --   -0.33261  -0.32833  -0.32446  -0.31379  -0.29332
 Alpha  occ. eigenvalues --   -0.29173  -0.28401  -0.28009  -0.27549  -0.27389
 Alpha  occ. eigenvalues --   -0.27096  -0.25550  -0.24755  -0.22420  -0.19131
 Alpha virt. eigenvalues --   -0.11701  -0.06990  -0.04845  -0.02067  -0.00623
 Alpha virt. eigenvalues --   -0.00531  -0.00182  -0.00038   0.00009   0.00599
 Alpha virt. eigenvalues --    0.02283   0.02715   0.03066   0.03933   0.05242
 Alpha virt. eigenvalues --    0.06635   0.07620   0.07900   0.08773   0.09306
 Alpha virt. eigenvalues --    0.09702   0.10929   0.11079   0.11262   0.12539
 Alpha virt. eigenvalues --    0.13222   0.13550   0.13821   0.14548   0.14871
 Alpha virt. eigenvalues --    0.15155   0.15212   0.15749   0.15794   0.15996
 Alpha virt. eigenvalues --    0.16096   0.17089   0.17207   0.17295   0.17434
 Alpha virt. eigenvalues --    0.17857   0.18221   0.18304   0.18465   0.18858
 Alpha virt. eigenvalues --    0.19412   0.19790   0.20794   0.21111   0.21375
 Alpha virt. eigenvalues --    0.21924   0.22606   0.23141   0.23765   0.24564
 Alpha virt. eigenvalues --    0.24660   0.25283   0.25402   0.25760   0.26240
 Alpha virt. eigenvalues --    0.26520   0.27031   0.28031   0.28878   0.29156
 Alpha virt. eigenvalues --    0.29943   0.30358   0.32134   0.32614   0.32794
 Alpha virt. eigenvalues --    0.33351   0.34122   0.34146   0.34586   0.35165
 Alpha virt. eigenvalues --    0.35413   0.35983   0.36479   0.36703   0.37091
 Alpha virt. eigenvalues --    0.37645   0.37691   0.38706   0.39659   0.40360
 Alpha virt. eigenvalues --    0.42150   0.43143   0.44748   0.45795   0.45897
 Alpha virt. eigenvalues --    0.47234   0.47356   0.47894   0.48344   0.48836
 Alpha virt. eigenvalues --    0.50080   0.50303   0.51213   0.51554   0.51627
 Alpha virt. eigenvalues --    0.51898   0.52498   0.52800   0.53085   0.53633
 Alpha virt. eigenvalues --    0.53802   0.53896   0.54447   0.54511   0.54561
 Alpha virt. eigenvalues --    0.54835   0.55134   0.55446   0.55506   0.55949
 Alpha virt. eigenvalues --    0.56104   0.56315   0.57144   0.57846   0.58062
 Alpha virt. eigenvalues --    0.58203   0.58354   0.58841   0.58931   0.59430
 Alpha virt. eigenvalues --    0.59555   0.59729   0.59820   0.59959   0.60004
 Alpha virt. eigenvalues --    0.60396   0.60493   0.60638   0.60882   0.61211
 Alpha virt. eigenvalues --    0.61497   0.62348   0.62373   0.62496   0.62685
 Alpha virt. eigenvalues --    0.63083   0.63462   0.63879   0.64220   0.64456
 Alpha virt. eigenvalues --    0.64851   0.65210   0.65640   0.66672   0.67150
 Alpha virt. eigenvalues --    0.67338   0.67552   0.67970   0.68665   0.69095
 Alpha virt. eigenvalues --    0.69727   0.70529   0.70651   0.71337   0.71779
 Alpha virt. eigenvalues --    0.72611   0.73033   0.73222   0.74297   0.74391
 Alpha virt. eigenvalues --    0.75283   0.75815   0.76511   0.77617   0.77818
 Alpha virt. eigenvalues --    0.78151   0.78647   0.79178   0.79660   0.80320
 Alpha virt. eigenvalues --    0.81072   0.81252   0.81727   0.82248   0.82444
 Alpha virt. eigenvalues --    0.83013   0.83189   0.83552   0.83951   0.84027
 Alpha virt. eigenvalues --    0.84420   0.84508   0.84710   0.85027   0.85502
 Alpha virt. eigenvalues --    0.85922   0.86262   0.86416   0.86505   0.86778
 Alpha virt. eigenvalues --    0.86913   0.87535   0.87753   0.87810   0.88411
 Alpha virt. eigenvalues --    0.88514   0.88954   0.89441   0.89655   0.89939
 Alpha virt. eigenvalues --    0.90440   0.91383   0.92648   0.92882   0.93205
 Alpha virt. eigenvalues --    0.93347   0.93825   0.94371   0.94718   0.94855
 Alpha virt. eigenvalues --    0.96050   0.96257   0.96655   0.97293   0.98008
 Alpha virt. eigenvalues --    0.98446   0.99723   1.00177   1.00605   1.01030
 Alpha virt. eigenvalues --    1.01542   1.01606   1.02181   1.02674   1.03083
 Alpha virt. eigenvalues --    1.03166   1.03498   1.04014   1.04092   1.05053
 Alpha virt. eigenvalues --    1.05154   1.05802   1.06114   1.06379   1.06993
 Alpha virt. eigenvalues --    1.07520   1.08618   1.08848   1.09793   1.10623
 Alpha virt. eigenvalues --    1.11304   1.12551   1.13375   1.13541   1.14450
 Alpha virt. eigenvalues --    1.14851   1.15354   1.15761   1.17155   1.17236
 Alpha virt. eigenvalues --    1.18042   1.19305   1.19759   1.20387   1.20599
 Alpha virt. eigenvalues --    1.20870   1.21236   1.21655   1.22302   1.22963
 Alpha virt. eigenvalues --    1.23597   1.24334   1.24905   1.25330   1.25848
 Alpha virt. eigenvalues --    1.26336   1.26695   1.27368   1.27905   1.28434
 Alpha virt. eigenvalues --    1.28769   1.29907   1.30319   1.30583   1.31652
 Alpha virt. eigenvalues --    1.31767   1.33261   1.33589   1.34504   1.34860
 Alpha virt. eigenvalues --    1.36048   1.36879   1.36992   1.37042   1.37555
 Alpha virt. eigenvalues --    1.37939   1.38395   1.38704   1.38874   1.39497
 Alpha virt. eigenvalues --    1.40002   1.40056   1.40465   1.40614   1.41308
 Alpha virt. eigenvalues --    1.41861   1.42217   1.43345   1.43826   1.44124
 Alpha virt. eigenvalues --    1.44664   1.45050   1.45979   1.46887   1.47994
 Alpha virt. eigenvalues --    1.48969   1.49856   1.50250   1.52057   1.53160
 Alpha virt. eigenvalues --    1.53341   1.54870   1.55771   1.56919   1.58385
 Alpha virt. eigenvalues --    1.59353   1.62719   1.63058   1.63783   1.64445
 Alpha virt. eigenvalues --    1.65886   1.66263   1.67788   1.68248   1.69409
 Alpha virt. eigenvalues --    1.69968   1.71071   1.72221   1.72364   1.72728
 Alpha virt. eigenvalues --    1.74663   1.75634   1.75826   1.76113   1.76759
 Alpha virt. eigenvalues --    1.77030   1.77755   1.78248   1.79296   1.79917
 Alpha virt. eigenvalues --    1.79975   1.80513   1.81229   1.81383   1.82636
 Alpha virt. eigenvalues --    1.83099   1.83351   1.83722   1.84808   1.85342
 Alpha virt. eigenvalues --    1.85542   1.86223   1.86494   1.86815   1.87505
 Alpha virt. eigenvalues --    1.87659   1.87921   1.88208   1.88302   1.88466
 Alpha virt. eigenvalues --    1.88990   1.89745   1.90678   1.90806   1.91151
 Alpha virt. eigenvalues --    1.91617   1.92631   1.92974   1.93515   1.93678
 Alpha virt. eigenvalues --    1.94144   1.95240   1.95341   1.95766   1.96172
 Alpha virt. eigenvalues --    1.96535   1.96811   1.97383   1.97546   1.97787
 Alpha virt. eigenvalues --    1.99009   1.99172   1.99338   1.99412   1.99571
 Alpha virt. eigenvalues --    1.99599   1.99945   2.00937   2.00968   2.01654
 Alpha virt. eigenvalues --    2.02081   2.02502   2.02595   2.03228   2.04226
 Alpha virt. eigenvalues --    2.04340   2.04852   2.05440   2.06190   2.07058
 Alpha virt. eigenvalues --    2.07672   2.08297   2.08855   2.10386   2.11306
 Alpha virt. eigenvalues --    2.12955   2.13721   2.13963   2.14749   2.16021
 Alpha virt. eigenvalues --    2.16888   2.17419   2.17913   2.18538   2.19589
 Alpha virt. eigenvalues --    2.20607   2.21375   2.21902   2.22633   2.24062
 Alpha virt. eigenvalues --    2.25009   2.25178   2.25662   2.27857   2.28209
 Alpha virt. eigenvalues --    2.28288   2.28819   2.29484   2.29749   2.29992
 Alpha virt. eigenvalues --    2.31114   2.31615   2.32207   2.32968   2.33407
 Alpha virt. eigenvalues --    2.34137   2.34949   2.35849   2.36158   2.36537
 Alpha virt. eigenvalues --    2.36897   2.38644   2.39724   2.41135   2.41610
 Alpha virt. eigenvalues --    2.41689   2.42142   2.42361   2.43188   2.43617
 Alpha virt. eigenvalues --    2.43975   2.44186   2.44723   2.45227   2.45540
 Alpha virt. eigenvalues --    2.45992   2.46071   2.46493   2.47152   2.47801
 Alpha virt. eigenvalues --    2.48563   2.49064   2.49486   2.50242   2.51170
 Alpha virt. eigenvalues --    2.51656   2.51866   2.52216   2.53091   2.53683
 Alpha virt. eigenvalues --    2.53866   2.54588   2.55181   2.55378   2.56132
 Alpha virt. eigenvalues --    2.57945   2.58376   2.58612   2.59397   2.59635
 Alpha virt. eigenvalues --    2.60202   2.60445   2.60774   2.61038   2.61109
 Alpha virt. eigenvalues --    2.61487   2.62792   2.63173   2.63637   2.64781
 Alpha virt. eigenvalues --    2.65185   2.65981   2.66207   2.66427   2.66749
 Alpha virt. eigenvalues --    2.66930   2.67833   2.69747   2.70238   2.70643
 Alpha virt. eigenvalues --    2.70885   2.71392   2.71741   2.72565   2.74070
 Alpha virt. eigenvalues --    2.74692   2.74930   2.75263   2.76629   2.77019
 Alpha virt. eigenvalues --    2.79031   2.79408   2.79909   2.80661   2.82082
 Alpha virt. eigenvalues --    2.82284   2.84414   2.84492   2.84604   2.85194
 Alpha virt. eigenvalues --    2.85913   2.86277   2.87537   2.88088   2.90752
 Alpha virt. eigenvalues --    2.91579   2.94891   2.95957   2.97499   2.97925
 Alpha virt. eigenvalues --    2.98409   2.98748   3.00306   3.02772   3.03271
 Alpha virt. eigenvalues --    3.04507   3.05482   3.08148   3.09093   3.09919
 Alpha virt. eigenvalues --    3.11057   3.13192   3.15317   3.15570   3.18496
 Alpha virt. eigenvalues --    3.18643   3.19215   3.21687   3.22422   3.22969
 Alpha virt. eigenvalues --    3.23969   3.27213   3.27559   3.27722   3.28877
 Alpha virt. eigenvalues --    3.31643   3.32948   3.35090   3.35830   3.36688
 Alpha virt. eigenvalues --    3.36924   3.38227   3.40624   3.41051   3.41770
 Alpha virt. eigenvalues --    3.41870   3.43041   3.46952   3.47332   3.48186
 Alpha virt. eigenvalues --    3.53983   3.54160   3.54521   3.55869   3.67692
 Alpha virt. eigenvalues --    3.73624   3.82332   3.85389   3.85444   3.88000
 Alpha virt. eigenvalues --    3.99267   3.99882   4.02401   4.04344   4.08240
 Alpha virt. eigenvalues --    4.10715   4.10799   4.12759   4.14552   4.17339
 Alpha virt. eigenvalues --    4.17766   4.18806   4.18922   4.19507   4.19856
 Alpha virt. eigenvalues --    4.21645   4.22419   4.22939   4.23337   4.25728
 Alpha virt. eigenvalues --    4.27845   4.29632   4.34150   4.36735   4.40586
 Alpha virt. eigenvalues --    4.40922   4.45739   4.45873   4.46013   4.46722
 Alpha virt. eigenvalues --    4.48193   4.49082   4.50450   4.54219   4.54858
 Alpha virt. eigenvalues --    4.56158   4.58965   4.65604   4.75891   4.86813
 Alpha virt. eigenvalues --    4.88931   4.89370   4.91104
          Condensed to atoms (all electrons):
 Mulliken charges:
               1
     1  C   -0.155665
     2  O   -0.528514
     3  C    0.352047
     4  C   -0.183451
     5  C   -0.130613
     6  C    0.193066
     7  N   -0.670977
     8  C    0.288473
     9  C   -0.158689
    10  C   -0.139134
    11  C    0.099631
    12  C   -0.172515
    13  C   -0.158235
    14  H    0.149433
    15  H    0.144535
    16  C   -0.253959
    17  S    0.328227
    18  C   -0.289570
    19  C   -0.080664
    20  C   -0.113226
    21  H    0.141301
    22  H    0.174450
    23  C    0.201806
    24  C   -0.222399
    25  C   -0.162571
    26  C    0.095328
    27  C    0.180041
    28  C    0.207611
    29  N   -0.594225
    30  S    0.619008
    31  N   -0.598004
    32  C   -0.109032
    33  C   -0.066406
    34  C    0.322042
    35  N   -0.497429
    36  C    0.632919
    37  O   -0.428838
    38  O   -0.503202
    39  H    0.335914
    40  H    0.161697
    41  H    0.176145
    42  H    0.160469
    43  H    0.131565
    44  H    0.147697
    45  C    0.192651
    46  C   -0.130425
    47  C   -0.183595
    48  C    0.351702
    49  C   -0.165218
    50  C   -0.123735
    51  H    0.145570
    52  H    0.144362
    53  O   -0.528900
    54  C   -0.155542
    55  H    0.139289
    56  H    0.138830
    57  H    0.158277
    58  H    0.131983
    59  H    0.143904
    60  C   -0.123746
    61  C   -0.164871
    62  H    0.145220
    63  H    0.145771
    64  H    0.143459
    65  H    0.132013
    66  H    0.158690
    67  H    0.139834
    68  H    0.138394
 Sum of Mulliken charges =  -0.00000
 Mulliken charges with hydrogens summed into heavy atoms:
               1
     1  C    0.281253
     2  O   -0.528514
     3  C    0.352047
     4  C   -0.051438
     5  C    0.012846
     6  C    0.193066
     7  N   -0.670977
     8  C    0.288473
     9  C   -0.010992
    10  C   -0.007569
    11  C    0.099631
    12  C   -0.027981
    13  C   -0.008802
    16  C   -0.253959
    17  S    0.328227
    18  C   -0.289570
    19  C    0.093785
    20  C    0.028076
    23  C    0.201806
    24  C   -0.061931
    25  C    0.013574
    26  C    0.095328
    27  C    0.180041
    28  C    0.207611
    29  N   -0.594225
    30  S    0.619008
    31  N   -0.598004
    32  C    0.052665
    33  C   -0.066406
    34  C    0.322042
    35  N   -0.497429
    36  C    0.632919
    37  O   -0.428838
    38  O   -0.167288
    45  C    0.192651
    46  C    0.013479
    47  C   -0.051612
    48  C    0.351702
    49  C   -0.020857
    50  C    0.021834
    53  O   -0.528900
    54  C    0.280854
    60  C    0.022025
    61  C   -0.019650
 Electronic spatial extent (au):  <R**2>=          58748.5804
 Charge=             -0.0000 electrons
 Dipole moment (field-independent basis, Debye):
    X=             13.8113    Y=             -5.5538    Z=             -1.6319  Tot=             14.9753
 Quadrupole moment (field-independent basis, Debye-Ang):
   XX=           -290.1260   YY=           -260.5750   ZZ=           -261.3063
   XY=             62.5902   XZ=             16.5675   YZ=              5.1372
 Traceless Quadrupole moment (field-independent basis, Debye-Ang):
   XX=            -19.4569   YY=             10.0941   ZZ=              9.3628
   XY=             62.5902   XZ=             16.5675   YZ=              5.1372
 Octapole moment (field-independent basis, Debye-Ang**2):
  XXX=           1907.8690  YYY=            -65.4308  ZZZ=             -0.8599  XYY=            352.7846
  XXY=           -554.7698  XXZ=           -228.0163  XZZ=             15.5941  YZZ=              6.5440
  YYZ=              3.4738  XYZ=            110.4751
 Hexadecapole moment (field-independent basis, Debye-Ang**3):
 XXXX=         -74653.2998 YYYY=          -9927.5464 ZZZZ=           -717.1374 XXXY=           5521.8463
 XXXZ=           1611.1888 YYYX=           1675.4163 YYYZ=            161.2258 ZZZX=             23.4996
 ZZZY=            -26.7676 XXYY=         -12952.6346 XXZZ=         -11128.8683 YYZZ=          -1822.9216
 XXYZ=            339.3880 YYXZ=            283.6566 ZZXY=             10.7155
 N-N= 4.738910835546D+03 E-N=-1.561903905628D+04  KE= 2.605868176433D+03
 1\1\GINC-CN113\SP\RPBE1PBE TD-FC\6-31G(d,p)\C34H24N4O4S2\R2532\08-Jul-
 2021\0\\#N TD(NStates=10) PBE1PBE/6-31G(d,p)\\Name\\0,1\C,0,-7.854865,
 6.024058,-0.403487\O,0,-6.930098,5.445576,0.507285\C,0,-6.551439,4.151
 509,0.3146\C,0,-7.013084,3.328698,-0.716028\C,0,-6.548922,2.017843,-0.
 819648\C,0,-5.63931,1.50177,0.102244\N,0,-5.195402,0.146676,0.004616\C
 ,0,-3.831426,-0.166409,0.016121\C,0,-3.376849,-1.423317,0.463194\C,0,-
 2.028745,-1.730473,0.469197\C,0,-1.05804,-0.808007,0.035304\C,0,-1.519
 446,0.446258,-0.403126\C,0,-2.865936,0.763307,-0.416735\H,0,-3.182701,
 1.731893,-0.780526\H,0,-0.810972,1.178648,-0.774162\C,0,0.355386,-1.15
 6756,0.040233\S,0,1.59829,0.071945,0.059677\C,0,2.889919,-1.128032,0.0
 41858\C,0,2.339225,-2.399356,0.041965\C,0,0.933701,-2.413395,0.039446\
 H,0,0.351646,-3.324188,0.004324\H,0,2.952581,-3.286838,0.029235\C,0,4.
 274635,-0.725308,0.027824\C,0,4.663327,0.611667,-0.041976\C,0,5.998093
 ,1.048696,-0.058794\C,0,7.081872,0.178411,-0.008897\C,0,6.743828,-1.21
 949,0.067869\C,0,5.36506,-1.673476,0.086099\N,0,5.25742,-3.000011,0.16
 2402\S,0,6.774991,-3.613123,0.206354\N,0,7.627557,-2.214635,0.131885\C
 ,0,8.479634,0.528438,-0.0263\C,0,9.115721,1.732156,-0.098297\C,0,8.432
 816,2.976899,-0.214181\N,0,7.85974,3.978005,-0.29075\C,0,10.612934,1.8
 4396,-0.167833\O,0,11.17017,2.794364,-0.639908\O,0,11.326407,0.795559,
 0.320491\H,0,10.764773,0.217454,0.849414\H,0,9.119864,-0.348824,-0.005
 237\H,0,6.16939,2.114206,-0.118876\H,0,3.896732,1.375424,-0.092792\H,0
 ,-1.717481,-2.694805,0.853227\H,0,-4.091832,-2.15159,0.822929\C,0,-6.1
 82485,-0.88051,-0.109488\C,0,-7.243138,-0.949132,0.79286\C,0,-8.226109
 ,-1.931155,0.674294\C,0,-8.146178,-2.876241,-0.351647\C,0,-7.080856,-2
 .813495,-1.259788\C,0,-6.119176,-1.823881,-1.145719\H,0,-5.306643,-1.7
 76838,-1.861042\H,0,-7.039224,-3.545811,-2.056842\O,0,-9.042096,-3.882
 022,-0.555863\C,0,-10.140418,-4.002717,0.337475\H,0,-9.804647,-4.18371
 3,1.364656\H,0,-10.777211,-3.11122,0.314833\H,0,-10.712574,-4.86124,-0
 .009852\H,0,-9.036138,-1.951624,1.390748\H,0,-7.307425,-0.223104,1.594
 546\C,0,-5.19181,2.330782,1.141623\C,0,-5.633098,3.639345,1.240941\H,0
 ,-5.292087,4.286042,2.040189\H,0,-4.491923,1.941314,1.871452\H,0,-6.90
 6439,1.386992,-1.624756\H,0,-7.721313,3.69391,-1.447422\H,0,-8.009898,
 7.045443,-0.060366\H,0,-7.455829,6.042205,-1.423759\H,0,-8.812336,5.49
 1153,-0.39674\\Version=ES64L-G16RevB.01\State=1-A\HF=-2623.9503465\RMS
 D=7.518e-09\PG=C01 [X(C34H24N4O4S2)]\\@


 IT IS IMPOSSIBLE TO MEDITATE ON TIME AND THE MYSTERY 
 OF NATURE WITHOUT AN OVERWHELMING EMOTION AT THE
 LIMITATIONS OF HUMAN INTELLIGENCE.

                                         -- ALFRED NORTH WHITEHEAD
 Job cpu time:       0 days  1 hours 51 minutes 16.7 seconds.
 Elapsed time:       0 days  1 hours 52 minutes 22.4 seconds.
 File lengths (MBytes):  RWF=   4357 Int=      0 D2E=      0 Chk=    245 Scr=      1
 Normal termination of Gaussian 16 at Thu Jul  8 11:47:23 2021.
