 Entering Gaussian System, Link 0=/usr/local/apps//g09/g09
 Input=mex.com
 Output=mex.out
 Initial command:
 /usr/local/apps//g09/l1.exe "/tmp/bnp.504685.sequoia/Gau-17435.inp" -scrdir="/tmp/bnp.504685.sequoia/"
 Entering Link 1 = /usr/local/apps//g09/l1.exe PID=     17436.
  
 Copyright (c) 1988,1990,1992,1993,1995,1998,2003,2009,2013,
            Gaussian, Inc.  All Rights Reserved.
  
 This is part of the Gaussian(R) 09 program.  It is based on
 the Gaussian(R) 03 system (copyright 2003, Gaussian, Inc.),
 the Gaussian(R) 98 system (copyright 1998, Gaussian, Inc.),
 the Gaussian(R) 94 system (copyright 1995, Gaussian, Inc.),
 the Gaussian 92(TM) system (copyright 1992, Gaussian, Inc.),
 the Gaussian 90(TM) system (copyright 1990, Gaussian, Inc.),
 the Gaussian 88(TM) system (copyright 1988, Gaussian, Inc.),
 the Gaussian 86(TM) system (copyright 1986, Carnegie Mellon
 University), and the Gaussian 82(TM) system (copyright 1983,
 Carnegie Mellon University). Gaussian is a federally registered
 trademark of Gaussian, Inc.
  
 This software contains proprietary and confidential information,
 including trade secrets, belonging to Gaussian, Inc.
  
 This software is provided under written license and may be
 used, copied, transmitted, or stored only in accord with that
 written license.
  
 The following legend is applicable only to US Government
 contracts under FAR:
  
                    RESTRICTED RIGHTS LEGEND
  
 Use, reproduction and disclosure by the US Government is
 subject to restrictions as set forth in subparagraphs (a)
 and (c) of the Commercial Computer Software - Restricted
 Rights clause in FAR 52.227-19.
  
 Gaussian, Inc.
 340 Quinnipiac St., Bldg. 40, Wallingford CT 06492
  
  
 ---------------------------------------------------------------
 Warning -- This program may not be used in any manner that
 competes with the business of Gaussian, Inc. or will provide
 assistance to any competitor of Gaussian, Inc.  The licensee
 of this program is prohibited from giving any competitor of
 Gaussian, Inc. access to this program.  By using this program,
 the user acknowledges that Gaussian, Inc. is engaged in the
 business of creating and licensing software in the field of
 computational chemistry and represents and warrants to the
 licensee that it is not a competitor of Gaussian, Inc. and that
 it will not use this program in any manner prohibited above.
 ---------------------------------------------------------------
  

 Cite this work as:
 Gaussian 09, Revision D.01,
 M. J. Frisch, G. W. Trucks, H. B. Schlegel, G. E. Scuseria, 
 M. A. Robb, J. R. Cheeseman, G. Scalmani, V. Barone, B. Mennucci, 
 G. A. Petersson, H. Nakatsuji, M. Caricato, X. Li, H. P. Hratchian, 
 A. F. Izmaylov, J. Bloino, G. Zheng, J. L. Sonnenberg, M. Hada, 
 M. Ehara, K. Toyota, R. Fukuda, J. Hasegawa, M. Ishida, T. Nakajima, 
 Y. Honda, O. Kitao, H. Nakai, T. Vreven, J. A. Montgomery, Jr., 
 J. E. Peralta, F. Ogliaro, M. Bearpark, J. J. Heyd, E. Brothers, 
 K. N. Kudin, V. N. Staroverov, T. Keith, R. Kobayashi, J. Normand, 
 K. Raghavachari, A. Rendell, J. C. Burant, S. S. Iyengar, J. Tomasi, 
 M. Cossi, N. Rega, J. M. Millam, M. Klene, J. E. Knox, J. B. Cross, 
 V. Bakken, C. Adamo, J. Jaramillo, R. Gomperts, R. E. Stratmann, 
 O. Yazyev, A. J. Austin, R. Cammi, C. Pomelli, J. W. Ochterski, 
 R. L. Martin, K. Morokuma, V. G. Zakrzewski, G. A. Voth, 
 P. Salvador, J. J. Dannenberg, S. Dapprich, A. D. Daniels, 
 O. Farkas, J. B. Foresman, J. V. Ortiz, J. Cioslowski, 
 and D. J. Fox, Gaussian, Inc., Wallingford CT, 2013.
 
 ******************************************
 Gaussian 09:  ES64L-G09RevD.01 24-Apr-2013
                16-Sep-2021 
 ******************************************
 ------------------------
 #N B3LYP/6-311G(d,p) Opt
 ------------------------
 1/14=-1,18=20,19=15,26=3,38=1/1,3;
 2/9=110,12=2,17=6,18=5,40=1/2;
 3/5=4,6=6,7=101,11=2,16=1,25=1,30=1,71=1,74=-5/1,2,3;
 4//1;
 5/5=2,38=5/2;
 6/7=2,8=2,9=2,10=2,28=1/1;
 7//1,2,3,16;
 1/14=-1,18=20,19=15,26=3/3(2);
 2/9=110/2;
 99//99;
 2/9=110/2;
 3/5=4,6=6,7=101,11=2,16=1,25=1,30=1,71=1,74=-5/1,2,3;
 4/5=5,16=3,69=1/1;
 5/5=2,38=5/2;
 7//1,2,3,16;
 1/14=-1,18=20,19=15,26=3/3(-5);
 2/9=110/2;
 6/7=2,8=2,9=2,10=2,19=2,28=1/1;
 99/9=1/99;
 ---
 aaa
 ---
 Symbolic Z-matrix:
 Charge =  0 Multiplicity = 1
 6                     9.5725   -2.62523   0.62271 
 6                     8.2392   -1.99121   0.35022 
 6                     8.06603  -0.66294  -0.00605 
 6                     9.03782   0.32914  -0.17826 
 6                     9.86885   1.20097  -0.33079 
 6                     10.8329   2.22342  -0.50932 
 6                     12.20195   1.9677   -0.30226 
 6                     13.13853   2.97638  -0.47022 
 6                     12.74402   4.26584  -0.84965 
 6                     13.70758   5.39119  -1.06715 
 8                     14.93627   5.26223  -0.49615 
 8                     13.44419   6.37285  -1.70743 
 6                     11.38574   4.51592  -1.08171 
 6                     10.44207   3.51912  -0.90626 
 16                    6.36749  -0.28538  -0.24734 
 6                     5.89285  -1.9317    0.13665 
 6                     4.49124  -2.32139   0.1194 
 6                     4.04509  -3.65657   0.42664 
 7                     4.82644  -4.68532   0.75755 
 16                    3.85537  -5.97972   1.00854 
 7                     2.40487  -5.28468   0.70738 
 6                     2.6281   -4.0073    0.39765 
 6                     3.47795  -1.43111  -0.19556 
 6                     2.11015  -1.76821  -0.22197 
 6                     1.61851  -3.03237   0.06283 
 6                     0.20027  -3.34431   0.02462 
 16                   -0.97855  -2.12458  -0.43767 
 6                    -0.45156  -4.52433   0.30865 
 6                    -1.86619  -4.4749    0.17942 
 6                    -2.73928  -5.66067   0.49772 
 6                    -2.31771  -3.23073  -0.21512 
 6                    -3.68906  -2.75715  -0.45738 
 6                    -4.58901  -3.54093  -1.20935 
 6                    -5.86765  -3.088    -1.50146 
 6                    -4.10576  -1.51063   0.03162 
 6                    -5.40386  -1.04761  -0.20312 
 6                    -6.25396  -1.83822  -1.02025 
 7                    -7.43511  -1.1575   -1.24989 
 6                    -8.63413  -1.83318  -1.718 
 6                    -7.3604    0.08968  -0.63298 
 6                    -6.1563    0.15514   0.11854 
 6                    -5.98775   1.26729   0.98134 
 6                    -6.8834    2.36986   0.96418 
 6                    -6.49747   3.2426    2.05957 
 6                    -7.03365   4.38499   2.67285 
 6                    -6.40122   4.94079   3.77876 
 6                    -5.23577   4.37053   4.30475 
 6                    -4.70406   3.2118    3.75152 
 6                    -5.35133   2.65175   2.64938 
 7                    -5.06199   1.4593    1.99983 
 6                    -4.20769   0.45085   2.60595 
 6                    -7.92181   2.35898   0.00255 
 6                    -8.22028   1.20574  -0.77182 
 6                    -9.31296   1.57115  -1.66165 
 6                    -9.63289   2.91954  -1.35738 
 7                    -8.77944   3.38623  -0.36777 
 6                    -8.56798   4.81051  -0.16123 
 6                    -10.62897   3.62745  -2.02964 
 6                    -11.3144   2.98271  -3.05224 
 6                    -10.99146   1.66699  -3.40255 
 6                    -9.99978   0.96621  -2.72494 
 6                     7.0098   -2.68961   0.42596 
 1                     10.38157  -1.89943   0.53691 
 1                     9.768    -3.43863  -0.08288 
 1                     9.60165  -3.05317   1.62929 
 1                     12.51897   0.97214  -0.01807 
 1                     14.18771   2.73116  -0.3374 
 1                     14.94314   4.51706   0.11506 
 1                     11.09245   5.50842  -1.4 
 1                     9.39265   3.72473  -1.07693 
 1                     3.73492  -0.40658  -0.43918 
 1                     1.41376  -0.9798   -0.48209 
 1                     0.08212  -5.40866   0.62276 
 1                    -2.32667  -6.21982   1.34121 
 1                    -2.80337  -6.35344  -0.34856 
 1                    -3.75476  -5.35637   0.75449 
 1                    -4.25693  -4.48789  -1.61491 
 1                    -6.52702  -3.67829  -2.12619 
 1                    -3.39725  -0.91679   0.58884 
 1                    -8.66931  -1.90331  -2.80927 
 1                    -9.51444  -1.30497  -1.36147 
 1                    -8.65675  -2.84503  -1.30622 
 1                    -7.95181   4.8295    2.31887 
 1                    -6.82251   5.8243    4.24443 
 1                    -4.74991   4.82635   5.1597 
 1                    -3.81172   2.76169   4.16888 
 1                    -4.59877  -0.54091   2.39454 
 1                    -4.21029   0.58897   3.68816 
 1                    -3.17455   0.51586   2.25187 
 1                    -7.54978   4.98561   0.17489 
 1                    -9.26655   5.22959   0.56917 
 1                    -8.70652   5.33277  -1.11047 
 1                    -10.86652   4.65034  -1.76388 
 1                    -12.09627   3.50839  -3.58806 
 1                    -11.51669   1.18633  -4.21993 
 1                    -9.7604   -0.03377  -3.05074 
 1                     6.93536  -3.73388   0.68851 
 

 GradGradGradGradGradGradGradGradGradGradGradGradGradGradGradGradGradGrad
 Berny optimization.
 Initialization pass.
                           ----------------------------
                           !    Initial Parameters    !
                           ! (Angstroms and Degrees)  !
 --------------------------                            --------------------------
 ! Name  Definition              Value          Derivative Info.                !
 --------------------------------------------------------------------------------
 ! R1    R(1,2)                  1.5013         estimate D2E/DX2                !
 ! R2    R(1,63)                 1.0903         estimate D2E/DX2                !
 ! R3    R(1,64)                 1.0944         estimate D2E/DX2                !
 ! R4    R(1,65)                 1.0942         estimate D2E/DX2                !
 ! R5    R(2,3)                  1.3861         estimate D2E/DX2                !
 ! R6    R(2,62)                 1.416          estimate D2E/DX2                !
 ! R7    R(3,4)                  1.3994         estimate D2E/DX2                !
 ! R8    R(3,15)                 1.7567         estimate D2E/DX2                !
 ! R9    R(4,5)                  1.2141         estimate D2E/DX2                !
 ! R10   R(5,6)                  1.4166         estimate D2E/DX2                !
 ! R11   R(6,7)                  1.408          estimate D2E/DX2                !
 ! R12   R(6,14)                 1.4104         estimate D2E/DX2                !
 ! R13   R(7,8)                  1.3867         estimate D2E/DX2                !
 ! R14   R(7,66)                 1.0828         estimate D2E/DX2                !
 ! R15   R(8,9)                  1.4008         estimate D2E/DX2                !
 ! R16   R(8,67)                 1.0856         estimate D2E/DX2                !
 ! R17   R(9,10)                 1.4974         estimate D2E/DX2                !
 ! R18   R(9,13)                 1.4005         estimate D2E/DX2                !
 ! R19   R(10,11)                1.361          estimate D2E/DX2                !
 ! R20   R(10,12)                1.2012         estimate D2E/DX2                !
 ! R21   R(11,68)                0.9638         estimate D2E/DX2                !
 ! R22   R(13,14)                1.3838         estimate D2E/DX2                !
 ! R23   R(13,69)                1.0828         estimate D2E/DX2                !
 ! R24   R(14,70)                1.0829         estimate D2E/DX2                !
 ! R25   R(15,16)                1.7559         estimate D2E/DX2                !
 ! R26   R(16,17)                1.4549         estimate D2E/DX2                !
 ! R27   R(16,62)                1.3805         estimate D2E/DX2                !
 ! R28   R(17,18)                1.4409         estimate D2E/DX2                !
 ! R29   R(17,23)                1.3851         estimate D2E/DX2                !
 ! R30   R(18,19)                1.3335         estimate D2E/DX2                !
 ! R31   R(18,22)                1.46           estimate D2E/DX2                !
 ! R32   R(19,20)                1.6375         estimate D2E/DX2                !
 ! R33   R(20,21)                1.6364         estimate D2E/DX2                !
 ! R34   R(21,22)                1.3332         estimate D2E/DX2                !
 ! R35   R(22,25)                1.4429         estimate D2E/DX2                !
 ! R36   R(23,24)                1.409          estimate D2E/DX2                !
 ! R37   R(23,71)                1.084          estimate D2E/DX2                !
 ! R38   R(24,25)                1.386          estimate D2E/DX2                !
 ! R39   R(24,72)                1.0836         estimate D2E/DX2                !
 ! R40   R(25,26)                1.4526         estimate D2E/DX2                !
 ! R41   R(26,27)                1.7581         estimate D2E/DX2                !
 ! R42   R(26,28)                1.3777         estimate D2E/DX2                !
 ! R43   R(27,31)                1.7511         estimate D2E/DX2                !
 ! R44   R(28,29)                1.4214         estimate D2E/DX2                !
 ! R45   R(28,73)                1.0796         estimate D2E/DX2                !
 ! R46   R(29,30)                1.5065         estimate D2E/DX2                !
 ! R47   R(29,31)                1.3811         estimate D2E/DX2                !
 ! R48   R(30,74)                1.0929         estimate D2E/DX2                !
 ! R49   R(30,75)                1.0955         estimate D2E/DX2                !
 ! R50   R(30,76)                1.0908         estimate D2E/DX2                !
 ! R51   R(31,32)                1.4709         estimate D2E/DX2                !
 ! R52   R(32,33)                1.4106         estimate D2E/DX2                !
 ! R53   R(32,35)                1.4023         estimate D2E/DX2                !
 ! R54   R(33,34)                1.3876         estimate D2E/DX2                !
 ! R55   R(33,77)                1.0824         estimate D2E/DX2                !
 ! R56   R(34,37)                1.3938         estimate D2E/DX2                !
 ! R57   R(34,78)                1.0833         estimate D2E/DX2                !
 ! R58   R(35,36)                1.398          estimate D2E/DX2                !
 ! R59   R(35,79)                1.0794         estimate D2E/DX2                !
 ! R60   R(36,37)                1.4197         estimate D2E/DX2                !
 ! R61   R(36,41)                1.4547         estimate D2E/DX2                !
 ! R62   R(37,38)                1.3825         estimate D2E/DX2                !
 ! R63   R(38,39)                1.4537         estimate D2E/DX2                !
 ! R64   R(38,40)                1.3934         estimate D2E/DX2                !
 ! R65   R(39,80)                1.0941         estimate D2E/DX2                !
 ! R66   R(39,81)                1.0868         estimate D2E/DX2                !
 ! R67   R(39,82)                1.0927         estimate D2E/DX2                !
 ! R68   R(40,41)                1.4209         estimate D2E/DX2                !
 ! R69   R(40,53)                1.4157         estimate D2E/DX2                !
 ! R70   R(41,42)                1.4176         estimate D2E/DX2                !
 ! R71   R(42,43)                1.4206         estimate D2E/DX2                !
 ! R72   R(42,50)                1.3897         estimate D2E/DX2                !
 ! R73   R(43,44)                1.4527         estimate D2E/DX2                !
 ! R74   R(43,52)                1.4153         estimate D2E/DX2                !
 ! R75   R(44,45)                1.4031         estimate D2E/DX2                !
 ! R76   R(44,49)                1.418          estimate D2E/DX2                !
 ! R77   R(45,46)                1.3899         estimate D2E/DX2                !
 ! R78   R(45,83)                1.0798         estimate D2E/DX2                !
 ! R79   R(46,47)                1.4            estimate D2E/DX2                !
 ! R80   R(46,84)                1.0839         estimate D2E/DX2                !
 ! R81   R(47,48)                1.3898         estimate D2E/DX2                !
 ! R82   R(47,85)                1.0839         estimate D2E/DX2                !
 ! R83   R(48,49)                1.3955         estimate D2E/DX2                !
 ! R84   R(48,86)                1.0831         estimate D2E/DX2                !
 ! R85   R(49,50)                1.3884         estimate D2E/DX2                !
 ! R86   R(50,51)                1.454          estimate D2E/DX2                !
 ! R87   R(51,87)                1.0868         estimate D2E/DX2                !
 ! R88   R(51,88)                1.091          estimate D2E/DX2                !
 ! R89   R(51,89)                1.0941         estimate D2E/DX2                !
 ! R90   R(52,53)                1.4208         estimate D2E/DX2                !
 ! R91   R(52,56)                1.3885         estimate D2E/DX2                !
 ! R92   R(53,54)                1.4558         estimate D2E/DX2                !
 ! R93   R(54,55)                1.4188         estimate D2E/DX2                !
 ! R94   R(54,61)                1.4029         estimate D2E/DX2                !
 ! R95   R(55,56)                1.3876         estimate D2E/DX2                !
 ! R96   R(55,58)                1.3947         estimate D2E/DX2                !
 ! R97   R(56,57)                1.4546         estimate D2E/DX2                !
 ! R98   R(57,90)                1.0864         estimate D2E/DX2                !
 ! R99   R(57,91)                1.0941         estimate D2E/DX2                !
 ! R100  R(57,92)                1.0922         estimate D2E/DX2                !
 ! R101  R(58,59)                1.3897         estimate D2E/DX2                !
 ! R102  R(58,93)                1.0832         estimate D2E/DX2                !
 ! R103  R(59,60)                1.3993         estimate D2E/DX2                !
 ! R104  R(59,94)                1.0839         estimate D2E/DX2                !
 ! R105  R(60,61)                1.3906         estimate D2E/DX2                !
 ! R106  R(60,95)                1.084          estimate D2E/DX2                !
 ! R107  R(61,96)                1.0786         estimate D2E/DX2                !
 ! R108  R(62,97)                1.0793         estimate D2E/DX2                !
 ! A1    A(2,1,63)             111.3221         estimate D2E/DX2                !
 ! A2    A(2,1,64)             110.8244         estimate D2E/DX2                !
 ! A3    A(2,1,65)             110.8429         estimate D2E/DX2                !
 ! A4    A(63,1,64)            108.1481         estimate D2E/DX2                !
 ! A5    A(63,1,65)            108.2395         estimate D2E/DX2                !
 ! A6    A(64,1,65)            107.3177         estimate D2E/DX2                !
 ! A7    A(1,2,3)              124.2151         estimate D2E/DX2                !
 ! A8    A(1,2,62)             123.5784         estimate D2E/DX2                !
 ! A9    A(3,2,62)             112.2064         estimate D2E/DX2                !
 ! A10   A(2,3,4)              128.6271         estimate D2E/DX2                !
 ! A11   A(2,3,15)             111.2273         estimate D2E/DX2                !
 ! A12   A(4,3,15)             120.1456         estimate D2E/DX2                !
 ! A13   A(5,6,7)              120.8035         estimate D2E/DX2                !
 ! A14   A(5,6,14)             120.6619         estimate D2E/DX2                !
 ! A15   A(7,6,14)             118.5337         estimate D2E/DX2                !
 ! A16   A(6,7,8)              120.4513         estimate D2E/DX2                !
 ! A17   A(6,7,66)             119.3572         estimate D2E/DX2                !
 ! A18   A(8,7,66)             120.1895         estimate D2E/DX2                !
 ! A19   A(7,8,9)              120.8086         estimate D2E/DX2                !
 ! A20   A(7,8,67)             118.2701         estimate D2E/DX2                !
 ! A21   A(9,8,67)             120.8801         estimate D2E/DX2                !
 ! A22   A(8,9,10)             123.3611         estimate D2E/DX2                !
 ! A23   A(8,9,13)             118.8424         estimate D2E/DX2                !
 ! A24   A(10,9,13)            117.7641         estimate D2E/DX2                !
 ! A25   A(9,10,11)            116.6655         estimate D2E/DX2                !
 ! A26   A(9,10,12)            123.4011         estimate D2E/DX2                !
 ! A27   A(11,10,12)           119.9334         estimate D2E/DX2                !
 ! A28   A(10,11,68)           110.2275         estimate D2E/DX2                !
 ! A29   A(9,13,14)            120.7809         estimate D2E/DX2                !
 ! A30   A(9,13,69)            118.3663         estimate D2E/DX2                !
 ! A31   A(14,13,69)           120.8527         estimate D2E/DX2                !
 ! A32   A(6,14,13)            120.5622         estimate D2E/DX2                !
 ! A33   A(6,14,70)            119.1656         estimate D2E/DX2                !
 ! A34   A(13,14,70)           120.2716         estimate D2E/DX2                !
 ! A35   A(3,15,16)             91.7084         estimate D2E/DX2                !
 ! A36   A(15,16,17)           120.5947         estimate D2E/DX2                !
 ! A37   A(15,16,62)           109.9919         estimate D2E/DX2                !
 ! A38   A(17,16,62)           129.4134         estimate D2E/DX2                !
 ! A39   A(16,17,18)           122.9546         estimate D2E/DX2                !
 ! A40   A(16,17,23)           122.3648         estimate D2E/DX2                !
 ! A41   A(18,17,23)           114.6806         estimate D2E/DX2                !
 ! A42   A(17,18,19)           125.8972         estimate D2E/DX2                !
 ! A43   A(17,18,22)           121.2568         estimate D2E/DX2                !
 ! A44   A(19,18,22)           112.846          estimate D2E/DX2                !
 ! A45   A(18,19,20)           107.48           estimate D2E/DX2                !
 ! A46   A(19,20,21)            99.3055         estimate D2E/DX2                !
 ! A47   A(20,21,22)           107.5351         estimate D2E/DX2                !
 ! A48   A(18,22,21)           112.8335         estimate D2E/DX2                !
 ! A49   A(18,22,25)           121.4243         estimate D2E/DX2                !
 ! A50   A(21,22,25)           125.7422         estimate D2E/DX2                !
 ! A51   A(17,23,24)           124.1014         estimate D2E/DX2                !
 ! A52   A(17,23,71)           119.0233         estimate D2E/DX2                !
 ! A53   A(24,23,71)           116.8752         estimate D2E/DX2                !
 ! A54   A(23,24,25)           123.9683         estimate D2E/DX2                !
 ! A55   A(23,24,72)           117.0194         estimate D2E/DX2                !
 ! A56   A(25,24,72)           119.0123         estimate D2E/DX2                !
 ! A57   A(22,25,24)           114.5685         estimate D2E/DX2                !
 ! A58   A(22,25,26)           122.9662         estimate D2E/DX2                !
 ! A59   A(24,25,26)           122.4653         estimate D2E/DX2                !
 ! A60   A(25,26,27)           120.8339         estimate D2E/DX2                !
 ! A61   A(25,26,28)           129.8247         estimate D2E/DX2                !
 ! A62   A(27,26,28)           109.3414         estimate D2E/DX2                !
 ! A63   A(26,27,31)            92.3557         estimate D2E/DX2                !
 ! A64   A(26,28,29)           114.9836         estimate D2E/DX2                !
 ! A65   A(26,28,73)           121.8511         estimate D2E/DX2                !
 ! A66   A(29,28,73)           123.1559         estimate D2E/DX2                !
 ! A67   A(28,29,30)           122.0191         estimate D2E/DX2                !
 ! A68   A(28,29,31)           112.4994         estimate D2E/DX2                !
 ! A69   A(30,29,31)           125.4454         estimate D2E/DX2                !
 ! A70   A(29,30,74)           110.3019         estimate D2E/DX2                !
 ! A71   A(29,30,75)           111.6176         estimate D2E/DX2                !
 ! A72   A(29,30,76)           111.6967         estimate D2E/DX2                !
 ! A73   A(74,30,75)           107.1432         estimate D2E/DX2                !
 ! A74   A(74,30,76)           108.2119         estimate D2E/DX2                !
 ! A75   A(75,30,76)           107.6861         estimate D2E/DX2                !
 ! A76   A(27,31,29)           110.8138         estimate D2E/DX2                !
 ! A77   A(27,31,32)           119.2532         estimate D2E/DX2                !
 ! A78   A(29,31,32)           129.9327         estimate D2E/DX2                !
 ! A79   A(31,32,33)           120.2471         estimate D2E/DX2                !
 ! A80   A(31,32,35)           120.384          estimate D2E/DX2                !
 ! A81   A(33,32,35)           119.3547         estimate D2E/DX2                !
 ! A82   A(32,33,34)           121.2499         estimate D2E/DX2                !
 ! A83   A(32,33,77)           119.3499         estimate D2E/DX2                !
 ! A84   A(34,33,77)           119.3032         estimate D2E/DX2                !
 ! A85   A(33,34,37)           118.3853         estimate D2E/DX2                !
 ! A86   A(33,34,78)           120.2932         estimate D2E/DX2                !
 ! A87   A(37,34,78)           121.2651         estimate D2E/DX2                !
 ! A88   A(32,35,36)           120.78           estimate D2E/DX2                !
 ! A89   A(32,35,79)           118.293          estimate D2E/DX2                !
 ! A90   A(36,35,79)           120.9262         estimate D2E/DX2                !
 ! A91   A(35,36,37)           117.9174         estimate D2E/DX2                !
 ! A92   A(35,36,41)           135.8035         estimate D2E/DX2                !
 ! A93   A(37,36,41)           106.1398         estimate D2E/DX2                !
 ! A94   A(34,37,36)           122.1474         estimate D2E/DX2                !
 ! A95   A(34,37,38)           128.386          estimate D2E/DX2                !
 ! A96   A(36,37,38)           109.4509         estimate D2E/DX2                !
 ! A97   A(37,38,39)           121.9589         estimate D2E/DX2                !
 ! A98   A(37,38,40)           108.7457         estimate D2E/DX2                !
 ! A99   A(39,38,40)           127.0704         estimate D2E/DX2                !
 ! A100  A(38,39,80)           112.1789         estimate D2E/DX2                !
 ! A101  A(38,39,81)           109.6672         estimate D2E/DX2                !
 ! A102  A(38,39,82)           109.0343         estimate D2E/DX2                !
 ! A103  A(80,39,81)           109.4102         estimate D2E/DX2                !
 ! A104  A(80,39,82)           108.4129         estimate D2E/DX2                !
 ! A105  A(81,39,82)           108.0403         estimate D2E/DX2                !
 ! A106  A(38,40,41)           108.7134         estimate D2E/DX2                !
 ! A107  A(38,40,53)           129.0219         estimate D2E/DX2                !
 ! A108  A(41,40,53)           122.023          estimate D2E/DX2                !
 ! A109  A(36,41,40)           106.456          estimate D2E/DX2                !
 ! A110  A(36,41,42)           136.1949         estimate D2E/DX2                !
 ! A111  A(40,41,42)           117.3095         estimate D2E/DX2                !
 ! A112  A(41,42,43)           121.7737         estimate D2E/DX2                !
 ! A113  A(41,42,50)           129.3195         estimate D2E/DX2                !
 ! A114  A(43,42,50)           108.7604         estimate D2E/DX2                !
 ! A115  A(42,43,44)           106.8376         estimate D2E/DX2                !
 ! A116  A(42,43,52)           117.6976         estimate D2E/DX2                !
 ! A117  A(44,43,52)           135.3842         estimate D2E/DX2                !
 ! A118  A(43,44,45)           135.8224         estimate D2E/DX2                !
 ! A119  A(43,44,49)           106.1436         estimate D2E/DX2                !
 ! A120  A(45,44,49)           117.7966         estimate D2E/DX2                !
 ! A121  A(44,45,46)           119.9656         estimate D2E/DX2                !
 ! A122  A(44,45,83)           121.1199         estimate D2E/DX2                !
 ! A123  A(46,45,83)           118.8898         estimate D2E/DX2                !
 ! A124  A(45,46,47)           120.9848         estimate D2E/DX2                !
 ! A125  A(45,46,84)           119.4005         estimate D2E/DX2                !
 ! A126  A(47,46,84)           119.6129         estimate D2E/DX2                !
 ! A127  A(46,47,48)           120.566          estimate D2E/DX2                !
 ! A128  A(46,47,85)           119.8812         estimate D2E/DX2                !
 ! A129  A(48,47,85)           119.5468         estimate D2E/DX2                !
 ! A130  A(47,48,49)           118.1357         estimate D2E/DX2                !
 ! A131  A(47,48,86)           120.5515         estimate D2E/DX2                !
 ! A132  A(49,48,86)           121.3128         estimate D2E/DX2                !
 ! A133  A(44,49,48)           122.4262         estimate D2E/DX2                !
 ! A134  A(44,49,50)           109.3736         estimate D2E/DX2                !
 ! A135  A(48,49,50)           128.1374         estimate D2E/DX2                !
 ! A136  A(42,50,49)           108.8279         estimate D2E/DX2                !
 ! A137  A(42,50,51)           126.9477         estimate D2E/DX2                !
 ! A138  A(49,50,51)           121.541          estimate D2E/DX2                !
 ! A139  A(50,51,87)           109.8997         estimate D2E/DX2                !
 ! A140  A(50,51,88)           108.9225         estimate D2E/DX2                !
 ! A141  A(50,51,89)           112.2537         estimate D2E/DX2                !
 ! A142  A(87,51,88)           107.9158         estimate D2E/DX2                !
 ! A143  A(87,51,89)           109.3341         estimate D2E/DX2                !
 ! A144  A(88,51,89)           108.4063         estimate D2E/DX2                !
 ! A145  A(43,52,53)           122.0511         estimate D2E/DX2                !
 ! A146  A(43,52,56)           128.9542         estimate D2E/DX2                !
 ! A147  A(53,52,56)           108.9895         estimate D2E/DX2                !
 ! A148  A(40,53,52)           117.3119         estimate D2E/DX2                !
 ! A149  A(40,53,54)           135.5377         estimate D2E/DX2                !
 ! A150  A(52,53,54)           106.6832         estimate D2E/DX2                !
 ! A151  A(53,54,55)           106.0642         estimate D2E/DX2                !
 ! A152  A(53,54,61)           136.2596         estimate D2E/DX2                !
 ! A153  A(55,54,61)           117.5112         estimate D2E/DX2                !
 ! A154  A(54,55,56)           109.5039         estimate D2E/DX2                !
 ! A155  A(54,55,58)           122.6865         estimate D2E/DX2                !
 ! A156  A(56,55,58)           127.7557         estimate D2E/DX2                !
 ! A157  A(52,56,55)           108.7403         estimate D2E/DX2                !
 ! A158  A(52,56,57)           126.6365         estimate D2E/DX2                !
 ! A159  A(55,56,57)           121.3303         estimate D2E/DX2                !
 ! A160  A(56,57,90)           109.7535         estimate D2E/DX2                !
 ! A161  A(56,57,91)           112.1486         estimate D2E/DX2                !
 ! A162  A(56,57,92)           109.0467         estimate D2E/DX2                !
 ! A163  A(90,57,91)           109.2753         estimate D2E/DX2                !
 ! A164  A(90,57,92)           108.0998         estimate D2E/DX2                !
 ! A165  A(91,57,92)           108.4229         estimate D2E/DX2                !
 ! A166  A(55,58,59)           118.1284         estimate D2E/DX2                !
 ! A167  A(55,58,93)           121.1757         estimate D2E/DX2                !
 ! A168  A(59,58,93)           120.6958         estimate D2E/DX2                !
 ! A169  A(58,59,60)           120.4387         estimate D2E/DX2                !
 ! A170  A(58,59,94)           119.6402         estimate D2E/DX2                !
 ! A171  A(60,59,94)           119.9173         estimate D2E/DX2                !
 ! A172  A(59,60,61)           121.0931         estimate D2E/DX2                !
 ! A173  A(59,60,95)           119.5958         estimate D2E/DX2                !
 ! A174  A(61,60,95)           119.3096         estimate D2E/DX2                !
 ! A175  A(54,61,60)           120.0756         estimate D2E/DX2                !
 ! A176  A(54,61,96)           121.335          estimate D2E/DX2                !
 ! A177  A(60,61,96)           118.5737         estimate D2E/DX2                !
 ! A178  A(2,62,16)            114.866          estimate D2E/DX2                !
 ! A179  A(2,62,97)            123.3738         estimate D2E/DX2                !
 ! A180  A(16,62,97)           121.7602         estimate D2E/DX2                !
 ! A181  L(3,4,5,63,-1)        180.7879         estimate D2E/DX2                !
 ! A182  L(4,5,6,84,-1)        179.7046         estimate D2E/DX2                !
 ! A183  L(3,4,5,63,-2)        180.0449         estimate D2E/DX2                !
 ! A184  L(4,5,6,84,-2)        180.1045         estimate D2E/DX2                !
 ! D1    D(63,1,2,3)             1.8987         estimate D2E/DX2                !
 ! D2    D(63,1,2,62)         -178.2626         estimate D2E/DX2                !
 ! D3    D(64,1,2,3)          -118.5118         estimate D2E/DX2                !
 ! D4    D(64,1,2,62)           61.3268         estimate D2E/DX2                !
 ! D5    D(65,1,2,3)           122.4375         estimate D2E/DX2                !
 ! D6    D(65,1,2,62)          -57.7239         estimate D2E/DX2                !
 ! D7    D(1,2,3,4)             -0.1873         estimate D2E/DX2                !
 ! D8    D(1,2,3,15)           179.8332         estimate D2E/DX2                !
 ! D9    D(62,2,3,4)           179.9578         estimate D2E/DX2                !
 ! D10   D(62,2,3,15)           -0.0216         estimate D2E/DX2                !
 ! D11   D(1,2,62,16)         -179.8569         estimate D2E/DX2                !
 ! D12   D(1,2,62,97)            0.1594         estimate D2E/DX2                !
 ! D13   D(3,2,62,16)           -0.001          estimate D2E/DX2                !
 ! D14   D(3,2,62,97)         -179.9847         estimate D2E/DX2                !
 ! D15   D(2,3,6,7)             -1.0728         estimate D2E/DX2                !
 ! D16   D(2,3,6,14)           178.6264         estimate D2E/DX2                !
 ! D17   D(15,3,6,7)           178.85           estimate D2E/DX2                !
 ! D18   D(15,3,6,14)           -1.4508         estimate D2E/DX2                !
 ! D19   D(2,3,15,16)            0.0293         estimate D2E/DX2                !
 ! D20   D(4,3,15,16)         -179.9522         estimate D2E/DX2                !
 ! D21   D(5,6,7,8)           -179.5563         estimate D2E/DX2                !
 ! D22   D(5,6,7,66)             0.9516         estimate D2E/DX2                !
 ! D23   D(14,6,7,8)             0.8011         estimate D2E/DX2                !
 ! D24   D(14,6,7,66)         -178.6909         estimate D2E/DX2                !
 ! D25   D(5,6,14,13)         -179.9173         estimate D2E/DX2                !
 ! D26   D(5,6,14,70)           -0.1833         estimate D2E/DX2                !
 ! D27   D(7,6,14,13)           -0.2743         estimate D2E/DX2                !
 ! D28   D(7,6,14,70)          179.4598         estimate D2E/DX2                !
 ! D29   D(6,7,8,9)             -0.0796         estimate D2E/DX2                !
 ! D30   D(6,7,8,67)          -177.7646         estimate D2E/DX2                !
 ! D31   D(66,7,8,9)           179.4082         estimate D2E/DX2                !
 ! D32   D(66,7,8,67)            1.7232         estimate D2E/DX2                !
 ! D33   D(7,8,9,10)          -179.0433         estimate D2E/DX2                !
 ! D34   D(7,8,9,13)            -1.1617         estimate D2E/DX2                !
 ! D35   D(67,8,9,10)           -1.4189         estimate D2E/DX2                !
 ! D36   D(67,8,9,13)          176.4626         estimate D2E/DX2                !
 ! D37   D(8,9,10,11)          -19.8835         estimate D2E/DX2                !
 ! D38   D(8,9,10,12)          160.0985         estimate D2E/DX2                !
 ! D39   D(13,9,10,11)         162.2136         estimate D2E/DX2                !
 ! D40   D(13,9,10,12)         -17.8044         estimate D2E/DX2                !
 ! D41   D(8,9,13,14)            1.6928         estimate D2E/DX2                !
 ! D42   D(8,9,13,69)         -178.4075         estimate D2E/DX2                !
 ! D43   D(10,9,13,14)         179.6932         estimate D2E/DX2                !
 ! D44   D(10,9,13,69)          -0.4071         estimate D2E/DX2                !
 ! D45   D(9,10,11,68)         -10.7681         estimate D2E/DX2                !
 ! D46   D(12,10,11,68)        169.2492         estimate D2E/DX2                !
 ! D47   D(9,13,14,6)           -0.9824         estimate D2E/DX2                !
 ! D48   D(9,13,14,70)         179.2865         estimate D2E/DX2                !
 ! D49   D(69,13,14,6)         179.1204         estimate D2E/DX2                !
 ! D50   D(69,13,14,70)         -0.6107         estimate D2E/DX2                !
 ! D51   D(3,15,16,17)         179.9489         estimate D2E/DX2                !
 ! D52   D(3,15,16,62)          -0.0293         estimate D2E/DX2                !
 ! D53   D(15,16,17,18)       -179.9563         estimate D2E/DX2                !
 ! D54   D(15,16,17,23)          0.0372         estimate D2E/DX2                !
 ! D55   D(62,16,17,18)          0.0172         estimate D2E/DX2                !
 ! D56   D(62,16,17,23)       -179.9893         estimate D2E/DX2                !
 ! D57   D(15,16,62,2)           0.0229         estimate D2E/DX2                !
 ! D58   D(15,16,62,97)       -179.993          estimate D2E/DX2                !
 ! D59   D(17,16,62,2)        -179.9528         estimate D2E/DX2                !
 ! D60   D(17,16,62,97)          0.0313         estimate D2E/DX2                !
 ! D61   D(16,17,18,19)         -0.0227         estimate D2E/DX2                !
 ! D62   D(16,17,18,22)       -179.9826         estimate D2E/DX2                !
 ! D63   D(23,17,18,19)        179.9834         estimate D2E/DX2                !
 ! D64   D(23,17,18,22)          0.0235         estimate D2E/DX2                !
 ! D65   D(16,17,23,24)       -179.9253         estimate D2E/DX2                !
 ! D66   D(16,17,23,71)          0.0459         estimate D2E/DX2                !
 ! D67   D(18,17,23,24)          0.0687         estimate D2E/DX2                !
 ! D68   D(18,17,23,71)       -179.9602         estimate D2E/DX2                !
 ! D69   D(17,18,19,20)       -179.9366         estimate D2E/DX2                !
 ! D70   D(22,18,19,20)          0.0263         estimate D2E/DX2                !
 ! D71   D(17,18,22,21)        179.9374         estimate D2E/DX2                !
 ! D72   D(17,18,22,25)         -0.1004         estimate D2E/DX2                !
 ! D73   D(19,18,22,21)         -0.0274         estimate D2E/DX2                !
 ! D74   D(19,18,22,25)        179.9348         estimate D2E/DX2                !
 ! D75   D(18,19,20,21)         -0.0166         estimate D2E/DX2                !
 ! D76   D(19,20,21,22)          0.0011         estimate D2E/DX2                !
 ! D77   D(20,21,22,18)          0.0139         estimate D2E/DX2                !
 ! D78   D(20,21,22,25)       -179.9464         estimate D2E/DX2                !
 ! D79   D(18,22,25,24)          0.08           estimate D2E/DX2                !
 ! D80   D(18,22,25,26)       -179.9615         estimate D2E/DX2                !
 ! D81   D(21,22,25,24)       -179.9628         estimate D2E/DX2                !
 ! D82   D(21,22,25,26)         -0.0044         estimate D2E/DX2                !
 ! D83   D(17,23,24,25)         -0.0907         estimate D2E/DX2                !
 ! D84   D(17,23,24,72)        179.8804         estimate D2E/DX2                !
 ! D85   D(71,23,24,25)        179.9376         estimate D2E/DX2                !
 ! D86   D(71,23,24,72)         -0.0913         estimate D2E/DX2                !
 ! D87   D(23,24,25,22)          0.0104         estimate D2E/DX2                !
 ! D88   D(23,24,25,26)       -179.9483         estimate D2E/DX2                !
 ! D89   D(72,24,25,22)       -179.9602         estimate D2E/DX2                !
 ! D90   D(72,24,25,26)          0.0811         estimate D2E/DX2                !
 ! D91   D(22,25,26,27)       -178.1519         estimate D2E/DX2                !
 ! D92   D(22,25,26,28)          1.839          estimate D2E/DX2                !
 ! D93   D(24,25,26,27)          1.8034         estimate D2E/DX2                !
 ! D94   D(24,25,26,28)       -178.2058         estimate D2E/DX2                !
 ! D95   D(25,26,27,31)       -179.2994         estimate D2E/DX2                !
 ! D96   D(28,26,27,31)          0.708          estimate D2E/DX2                !
 ! D97   D(25,26,28,29)        179.414          estimate D2E/DX2                !
 ! D98   D(25,26,28,73)          0.4961         estimate D2E/DX2                !
 ! D99   D(27,26,28,29)         -0.5944         estimate D2E/DX2                !
 ! D100  D(27,26,28,73)       -179.5122         estimate D2E/DX2                !
 ! D101  D(26,27,31,29)         -0.6644         estimate D2E/DX2                !
 ! D102  D(26,27,31,32)        179.4944         estimate D2E/DX2                !
 ! D103  D(26,28,29,30)       -177.8226         estimate D2E/DX2                !
 ! D104  D(26,28,29,31)          0.1035         estimate D2E/DX2                !
 ! D105  D(73,28,29,30)          1.0795         estimate D2E/DX2                !
 ! D106  D(73,28,29,31)        179.0055         estimate D2E/DX2                !
 ! D107  D(28,29,30,74)         35.4639         estimate D2E/DX2                !
 ! D108  D(28,29,30,75)        -83.5267         estimate D2E/DX2                !
 ! D109  D(28,29,30,76)        155.8509         estimate D2E/DX2                !
 ! D110  D(31,29,30,74)       -142.184          estimate D2E/DX2                !
 ! D111  D(31,29,30,75)         98.8254         estimate D2E/DX2                !
 ! D112  D(31,29,30,76)        -21.797          estimate D2E/DX2                !
 ! D113  D(28,29,31,27)          0.4457         estimate D2E/DX2                !
 ! D114  D(28,29,31,32)       -179.735          estimate D2E/DX2                !
 ! D115  D(30,29,31,27)        178.2872         estimate D2E/DX2                !
 ! D116  D(30,29,31,32)         -1.8935         estimate D2E/DX2                !
 ! D117  D(27,31,32,33)        134.152          estimate D2E/DX2                !
 ! D118  D(27,31,32,35)        -44.4693         estimate D2E/DX2                !
 ! D119  D(29,31,32,33)        -45.6544         estimate D2E/DX2                !
 ! D120  D(29,31,32,35)        135.7243         estimate D2E/DX2                !
 ! D121  D(31,32,33,34)       -177.0709         estimate D2E/DX2                !
 ! D122  D(31,32,33,77)         -0.6773         estimate D2E/DX2                !
 ! D123  D(35,32,33,34)          1.5645         estimate D2E/DX2                !
 ! D124  D(35,32,33,77)        177.9582         estimate D2E/DX2                !
 ! D125  D(31,32,35,36)        179.4752         estimate D2E/DX2                !
 ! D126  D(31,32,35,79)         -0.2158         estimate D2E/DX2                !
 ! D127  D(33,32,35,36)          0.8417         estimate D2E/DX2                !
 ! D128  D(33,32,35,79)       -178.8493         estimate D2E/DX2                !
 ! D129  D(32,33,34,37)         -0.7055         estimate D2E/DX2                !
 ! D130  D(32,33,34,78)        176.6002         estimate D2E/DX2                !
 ! D131  D(77,33,34,37)       -177.1008         estimate D2E/DX2                !
 ! D132  D(77,33,34,78)          0.205          estimate D2E/DX2                !
 ! D133  D(33,34,37,36)         -2.5655         estimate D2E/DX2                !
 ! D134  D(33,34,37,38)        175.8388         estimate D2E/DX2                !
 ! D135  D(78,34,37,36)       -179.8438         estimate D2E/DX2                !
 ! D136  D(78,34,37,38)         -1.4395         estimate D2E/DX2                !
 ! D137  D(32,35,36,37)         -3.9118         estimate D2E/DX2                !
 ! D138  D(32,35,36,41)       -178.9217         estimate D2E/DX2                !
 ! D139  D(79,35,36,37)        175.771          estimate D2E/DX2                !
 ! D140  D(79,35,36,41)          0.7612         estimate D2E/DX2                !
 ! D141  D(35,36,37,34)          4.8549         estimate D2E/DX2                !
 ! D142  D(35,36,37,38)       -173.8186         estimate D2E/DX2                !
 ! D143  D(41,36,37,34)       -178.7643         estimate D2E/DX2                !
 ! D144  D(41,36,37,38)          2.5621         estimate D2E/DX2                !
 ! D145  D(35,36,41,40)        169.4626         estimate D2E/DX2                !
 ! D146  D(35,36,41,42)        -12.9999         estimate D2E/DX2                !
 ! D147  D(37,36,41,40)         -5.948          estimate D2E/DX2                !
 ! D148  D(37,36,41,42)        171.5895         estimate D2E/DX2                !
 ! D149  D(34,37,38,39)         19.2082         estimate D2E/DX2                !
 ! D150  D(34,37,38,40)       -176.6356         estimate D2E/DX2                !
 ! D151  D(36,37,38,39)       -162.2246         estimate D2E/DX2                !
 ! D152  D(36,37,38,40)          1.9316         estimate D2E/DX2                !
 ! D153  D(37,38,39,80)        -87.211          estimate D2E/DX2                !
 ! D154  D(37,38,39,81)        150.9985         estimate D2E/DX2                !
 ! D155  D(37,38,39,82)         32.8864         estimate D2E/DX2                !
 ! D156  D(40,38,39,80)        111.6952         estimate D2E/DX2                !
 ! D157  D(40,38,39,81)        -10.0954         estimate D2E/DX2                !
 ! D158  D(40,38,39,82)       -128.2074         estimate D2E/DX2                !
 ! D159  D(37,38,40,41)         -5.8032         estimate D2E/DX2                !
 ! D160  D(37,38,40,53)        168.5494         estimate D2E/DX2                !
 ! D161  D(39,38,40,41)        157.3205         estimate D2E/DX2                !
 ! D162  D(39,38,40,53)        -28.3269         estimate D2E/DX2                !
 ! D163  D(38,40,41,36)          7.2563         estimate D2E/DX2                !
 ! D164  D(38,40,41,42)       -170.8256         estimate D2E/DX2                !
 ! D165  D(53,40,41,36)       -167.5702         estimate D2E/DX2                !
 ! D166  D(53,40,41,42)         14.348          estimate D2E/DX2                !
 ! D167  D(38,40,53,52)        178.8732         estimate D2E/DX2                !
 ! D168  D(38,40,53,54)        -10.2091         estimate D2E/DX2                !
 ! D169  D(41,40,53,52)         -7.4382         estimate D2E/DX2                !
 ! D170  D(41,40,53,54)        163.4796         estimate D2E/DX2                !
 ! D171  D(36,41,42,43)        173.8611         estimate D2E/DX2                !
 ! D172  D(36,41,42,50)        -11.0522         estimate D2E/DX2                !
 ! D173  D(40,41,42,43)         -8.7969         estimate D2E/DX2                !
 ! D174  D(40,41,42,50)        166.2899         estimate D2E/DX2                !
 ! D175  D(41,42,43,44)        174.0135         estimate D2E/DX2                !
 ! D176  D(41,42,43,52)         -3.2214         estimate D2E/DX2                !
 ! D177  D(50,42,43,44)         -1.9739         estimate D2E/DX2                !
 ! D178  D(50,42,43,52)       -179.2087         estimate D2E/DX2                !
 ! D179  D(41,42,50,49)       -174.8497         estimate D2E/DX2                !
 ! D180  D(41,42,50,51)        -13.4065         estimate D2E/DX2                !
 ! D181  D(43,42,50,49)          0.7401         estimate D2E/DX2                !
 ! D182  D(43,42,50,51)        162.1833         estimate D2E/DX2                !
 ! D183  D(42,43,44,45)       -171.5832         estimate D2E/DX2                !
 ! D184  D(42,43,44,49)          2.4207         estimate D2E/DX2                !
 ! D185  D(52,43,44,45)          4.93           estimate D2E/DX2                !
 ! D186  D(52,43,44,49)        178.934          estimate D2E/DX2                !
 ! D187  D(42,43,52,53)         10.6201         estimate D2E/DX2                !
 ! D188  D(42,43,52,56)       -168.4594         estimate D2E/DX2                !
 ! D189  D(44,43,52,53)       -165.6104         estimate D2E/DX2                !
 ! D190  D(44,43,52,56)         15.3101         estimate D2E/DX2                !
 ! D191  D(43,44,45,46)        176.8434         estimate D2E/DX2                !
 ! D192  D(43,44,45,83)         -1.3296         estimate D2E/DX2                !
 ! D193  D(49,44,45,46)          3.3564         estimate D2E/DX2                !
 ! D194  D(49,44,45,83)       -174.8165         estimate D2E/DX2                !
 ! D195  D(43,44,49,48)       -179.3605         estimate D2E/DX2                !
 ! D196  D(43,44,49,50)         -2.026          estimate D2E/DX2                !
 ! D197  D(45,44,49,48)         -4.0808         estimate D2E/DX2                !
 ! D198  D(45,44,49,50)        173.2537         estimate D2E/DX2                !
 ! D199  D(44,45,46,47)         -0.592          estimate D2E/DX2                !
 ! D200  D(44,45,46,84)        179.9032         estimate D2E/DX2                !
 ! D201  D(83,45,46,47)        177.6216         estimate D2E/DX2                !
 ! D202  D(83,45,46,84)         -1.8832         estimate D2E/DX2                !
 ! D203  D(45,46,47,48)         -1.7034         estimate D2E/DX2                !
 ! D204  D(45,46,47,85)        179.1896         estimate D2E/DX2                !
 ! D205  D(84,46,47,48)        177.8004         estimate D2E/DX2                !
 ! D206  D(84,46,47,85)         -1.3065         estimate D2E/DX2                !
 ! D207  D(46,47,48,49)          1.049          estimate D2E/DX2                !
 ! D208  D(46,47,48,86)       -178.9808         estimate D2E/DX2                !
 ! D209  D(85,47,48,49)       -179.8411         estimate D2E/DX2                !
 ! D210  D(85,47,48,86)          0.1291         estimate D2E/DX2                !
 ! D211  D(47,48,49,44)          1.8823         estimate D2E/DX2                !
 ! D212  D(47,48,49,50)       -174.9202         estimate D2E/DX2                !
 ! D213  D(86,48,49,44)       -178.0877         estimate D2E/DX2                !
 ! D214  D(86,48,49,50)          5.1098         estimate D2E/DX2                !
 ! D215  D(44,49,50,42)          0.8393         estimate D2E/DX2                !
 ! D216  D(44,49,50,51)       -161.7977         estimate D2E/DX2                !
 ! D217  D(48,49,50,42)        177.9786         estimate D2E/DX2                !
 ! D218  D(48,49,50,51)         15.3416         estimate D2E/DX2                !
 ! D219  D(42,50,51,87)        -18.4253         estimate D2E/DX2                !
 ! D220  D(42,50,51,88)       -136.4556         estimate D2E/DX2                !
 ! D221  D(42,50,51,89)        103.4828         estimate D2E/DX2                !
 ! D222  D(49,50,51,87)        140.8774         estimate D2E/DX2                !
 ! D223  D(49,50,51,88)         22.8471         estimate D2E/DX2                !
 ! D224  D(49,50,51,89)        -97.2145         estimate D2E/DX2                !
 ! D225  D(43,52,53,40)         -5.4447         estimate D2E/DX2                !
 ! D226  D(43,52,53,54)       -178.8166         estimate D2E/DX2                !
 ! D227  D(56,52,53,40)        173.7983         estimate D2E/DX2                !
 ! D228  D(56,52,53,54)          0.4264         estimate D2E/DX2                !
 ! D229  D(43,52,56,55)        179.6312         estimate D2E/DX2                !
 ! D230  D(43,52,56,57)         20.149          estimate D2E/DX2                !
 ! D231  D(53,52,56,55)          0.4563         estimate D2E/DX2                !
 ! D232  D(53,52,56,57)       -159.0258         estimate D2E/DX2                !
 ! D233  D(40,53,54,55)       -172.6965         estimate D2E/DX2                !
 ! D234  D(40,53,54,61)          2.2808         estimate D2E/DX2                !
 ! D235  D(52,53,54,55)         -1.1159         estimate D2E/DX2                !
 ! D236  D(52,53,54,61)        173.8614         estimate D2E/DX2                !
 ! D237  D(53,54,55,56)          1.4241         estimate D2E/DX2                !
 ! D238  D(53,54,55,58)        178.9448         estimate D2E/DX2                !
 ! D239  D(61,54,55,56)       -174.6625         estimate D2E/DX2                !
 ! D240  D(61,54,55,58)          2.8583         estimate D2E/DX2                !
 ! D241  D(53,54,61,60)       -177.1404         estimate D2E/DX2                !
 ! D242  D(53,54,61,96)          1.3965         estimate D2E/DX2                !
 ! D243  D(55,54,61,60)         -2.5836         estimate D2E/DX2                !
 ! D244  D(55,54,61,96)        175.9534         estimate D2E/DX2                !
 ! D245  D(54,55,56,52)         -1.1926         estimate D2E/DX2                !
 ! D246  D(54,55,56,57)        159.5831         estimate D2E/DX2                !
 ! D247  D(58,55,56,52)       -178.5533         estimate D2E/DX2                !
 ! D248  D(58,55,56,57)        -17.7775         estimate D2E/DX2                !
 ! D249  D(54,55,58,59)         -1.0903         estimate D2E/DX2                !
 ! D250  D(54,55,58,93)        178.7661         estimate D2E/DX2                !
 ! D251  D(56,55,58,59)        175.9535         estimate D2E/DX2                !
 ! D252  D(56,55,58,93)         -4.1901         estimate D2E/DX2                !
 ! D253  D(52,56,57,90)          9.9653         estimate D2E/DX2                !
 ! D254  D(52,56,57,91)       -111.6937         estimate D2E/DX2                !
 ! D255  D(52,56,57,92)        128.2071         estimate D2E/DX2                !
 ! D256  D(55,56,57,90)       -147.1686         estimate D2E/DX2                !
 ! D257  D(55,56,57,91)         91.1723         estimate D2E/DX2                !
 ! D258  D(55,56,57,92)        -28.9268         estimate D2E/DX2                !
 ! D259  D(55,58,59,60)         -0.9665         estimate D2E/DX2                !
 ! D260  D(55,58,59,94)        179.7304         estimate D2E/DX2                !
 ! D261  D(93,58,59,60)        179.1764         estimate D2E/DX2                !
 ! D262  D(93,58,59,94)         -0.1267         estimate D2E/DX2                !
 ! D263  D(58,59,60,61)          1.1936         estimate D2E/DX2                !
 ! D264  D(58,59,60,95)       -178.364          estimate D2E/DX2                !
 ! D265  D(94,59,60,61)       -179.5052         estimate D2E/DX2                !
 ! D266  D(94,59,60,95)          0.9371         estimate D2E/DX2                !
 ! D267  D(59,60,61,54)          0.6586         estimate D2E/DX2                !
 ! D268  D(59,60,61,96)       -177.9184         estimate D2E/DX2                !
 ! D269  D(95,60,61,54)       -179.7825         estimate D2E/DX2                !
 ! D270  D(95,60,61,96)          1.6405         estimate D2E/DX2                !
 --------------------------------------------------------------------------------
 Trust Radius=3.00D-01 FncErr=1.00D-07 GrdErr=1.00D-06
 Number of steps in this run=    572 maximum allowed number of steps=    582.
 GradGradGradGradGradGradGradGradGradGradGradGradGradGradGradGradGradGrad

 Stoichiometry    C52H35N5O2S3
 Framework group  C1[X(C52H35N5O2S3)]
 Deg. of freedom   285
 Full point group                 C1      NOp   1
 Largest Abelian subgroup         C1      NOp   1
 Largest concise Abelian subgroup C1      NOp   1
                         Standard orientation:                         
 ---------------------------------------------------------------------
 Center     Atomic      Atomic             Coordinates (Angstroms)
 Number     Number       Type             X           Y           Z
 ---------------------------------------------------------------------
      1          6           0        9.572500   -2.625230    0.622714
      2          6           0        8.239196   -1.991206    0.350223
      3          6           0        8.066035   -0.662939   -0.006048
      4          6           0        9.037824    0.329136   -0.178257
      5          6           0        9.868849    1.200972   -0.330786
      6          6           0       10.832902    2.223419   -0.509322
      7          6           0       12.201950    1.967704   -0.302263
      8          6           0       13.138535    2.976377   -0.470222
      9          6           0       12.744022    4.265838   -0.849649
     10          6           0       13.707576    5.391186   -1.067154
     11          8           0       14.936269    5.262229   -0.496154
     12          8           0       13.444192    6.372847   -1.707431
     13          6           0       11.385741    4.515923   -1.081711
     14          6           0       10.442067    3.519119   -0.906263
     15         16           0        6.367486   -0.285381   -0.247341
     16          6           0        5.892851   -1.931697    0.136652
     17          6           0        4.491240   -2.321388    0.119400
     18          6           0        4.045086   -3.656567    0.426643
     19          7           0        4.826441   -4.685318    0.757553
     20         16           0        3.855372   -5.979721    1.008542
     21          7           0        2.404868   -5.284678    0.707382
     22          6           0        2.628103   -4.007303    0.397647
     23          6           0        3.477946   -1.431110   -0.195564
     24          6           0        2.110145   -1.768213   -0.221970
     25          6           0        1.618507   -3.032369    0.062827
     26          6           0        0.200274   -3.344310    0.024624
     27         16           0       -0.978552   -2.124581   -0.437665
     28          6           0       -0.451555   -4.524327    0.308653
     29          6           0       -1.866186   -4.474899    0.179422
     30          6           0       -2.739275   -5.660670    0.497717
     31          6           0       -2.317711   -3.230734   -0.215118
     32          6           0       -3.689063   -2.757154   -0.457375
     33          6           0       -4.589015   -3.540927   -1.209351
     34          6           0       -5.867652   -3.088000   -1.501455
     35          6           0       -4.105764   -1.510631    0.031617
     36          6           0       -5.403856   -1.047611   -0.203123
     37          6           0       -6.253955   -1.838216   -1.020255
     38          7           0       -7.435109   -1.157498   -1.249887
     39          6           0       -8.634127   -1.833175   -1.718003
     40          6           0       -7.360400    0.089678   -0.632982
     41          6           0       -6.156296    0.155140    0.118542
     42          6           0       -5.987749    1.267289    0.981336
     43          6           0       -6.883402    2.369861    0.964180
     44          6           0       -6.497472    3.242595    2.059568
     45          6           0       -7.033648    4.384988    2.672851
     46          6           0       -6.401217    4.940793    3.778761
     47          6           0       -5.235774    4.370533    4.304751
     48          6           0       -4.704060    3.211801    3.751516
     49          6           0       -5.351325    2.651750    2.649384
     50          7           0       -5.061991    1.459295    1.999834
     51          6           0       -4.207686    0.450846    2.605945
     52          6           0       -7.921813    2.358980    0.002547
     53          6           0       -8.220281    1.205743   -0.771821
     54          6           0       -9.312962    1.571147   -1.661645
     55          6           0       -9.632895    2.919542   -1.357383
     56          7           0       -8.779443    3.386228   -0.367765
     57          6           0       -8.567981    4.810508   -0.161228
     58          6           0      -10.628968    3.627450   -2.029638
     59          6           0      -11.314396    2.982705   -3.052244
     60          6           0      -10.991458    1.666990   -3.402555
     61          6           0       -9.999776    0.966209   -2.724938
     62          6           0        7.009795   -2.689606    0.425960
     63          1           0       10.381571   -1.899431    0.536912
     64          1           0        9.767996   -3.438633   -0.082877
     65          1           0        9.601650   -3.053173    1.629290
     66          1           0       12.518966    0.972137   -0.018074
     67          1           0       14.187707    2.731158   -0.337395
     68          1           0       14.943136    4.517058    0.115055
     69          1           0       11.092449    5.508422   -1.400004
     70          1           0        9.392654    3.724733   -1.076925
     71          1           0        3.734918   -0.406575   -0.439178
     72          1           0        1.413764   -0.979800   -0.482094
     73          1           0        0.082118   -5.408663    0.622755
     74          1           0       -2.326673   -6.219817    1.341206
     75          1           0       -2.803366   -6.353436   -0.348561
     76          1           0       -3.754757   -5.356365    0.754493
     77          1           0       -4.256931   -4.487894   -1.614906
     78          1           0       -6.527019   -3.678286   -2.126191
     79          1           0       -3.397248   -0.916793    0.588840
     80          1           0       -8.669310   -1.903308   -2.809266
     81          1           0       -9.514439   -1.304965   -1.361471
     82          1           0       -8.656745   -2.845031   -1.306219
     83          1           0       -7.951805    4.829499    2.318867
     84          1           0       -6.822509    5.824297    4.244431
     85          1           0       -4.749911    4.826352    5.159705
     86          1           0       -3.811723    2.761687    4.168884
     87          1           0       -4.598775   -0.540911    2.394537
     88          1           0       -4.210287    0.588970    3.688162
     89          1           0       -3.174548    0.515860    2.251874
     90          1           0       -7.549779    4.985612    0.174886
     91          1           0       -9.266547    5.229593    0.569169
     92          1           0       -8.706522    5.332766   -1.110468
     93          1           0      -10.866518    4.650342   -1.763883
     94          1           0      -12.096272    3.508388   -3.588056
     95          1           0      -11.516694    1.186325   -4.219928
     96          1           0       -9.760401   -0.033771   -3.050741
     97          1           0        6.935361   -3.733875    0.688510
 ---------------------------------------------------------------------
 Rotational constants (GHZ):      0.0447281      0.0097132      0.0084800
 Standard basis: 6-311G(d,p) (5D, 7F)
 There are  1412 symmetry adapted cartesian basis functions of A   symmetry.
 There are  1350 symmetry adapted basis functions of A   symmetry.
  1350 basis functions,  2306 primitive gaussians,  1412 cartesian basis functions
   223 alpha electrons      223 beta electrons
       nuclear repulsion energy      7962.1389932968 Hartrees.
 NAtoms=   97 NActive=   97 NUniq=   97 SFac= 1.00D+00 NAtFMM=   60 NAOKFM=T Big=T
 Integral buffers will be    131072 words long.
 Raffenetti 2 integral format.
 Two-electron integral symmetry is turned on.
 One-electron integrals computed using PRISM.
 NBasis=  1350 RedAO= T EigKep=  1.60D-05  NBF=  1350
 NBsUse=  1350 1.00D-06 EigRej= -1.00D+00 NBFU=  1350
 ExpMin= 7.71D-02 ExpMax= 9.34D+04 ExpMxC= 3.17D+03 IAcc=2 IRadAn=         4 AccDes= 0.00D+00
 Harris functional with IExCor=  402 and IRadAn=       4 diagonalized for initial guess.
 HarFok:  IExCor=  402 AccDes= 0.00D+00 IRadAn=         4 IDoV= 1 UseB2=F ITyADJ=14
 ICtDFT=  3500011 ScaDFX=  1.000000  1.000000  1.000000  1.000000
 FoFCou: FMM=F IPFlag=           0 FMFlag=      100000 FMFlg1=        2001
         NFxFlg=           0 DoJE=T BraDBF=F KetDBF=T FulRan=T
         wScrn=  0.000000 ICntrl=     500 IOpCl=  0 I1Cent=   200000004 NGrid=           0
         NMat0=    1 NMatS0=      1 NMatT0=    0 NMatD0=    1 NMtDS0=    0 NMtDT0=    0
 Petite list used in FoFCou.
 Requested convergence on RMS density matrix=1.00D-08 within 128 cycles.
 Requested convergence on MAX density matrix=1.00D-06.
 Requested convergence on             energy=1.00D-06.
 No special actions if energy rises.
 Integral accuracy reduced to 1.0D-05 until final iterations.
 Initial convergence to 1.0D-05 achieved.  Increase integral accuracy.
 SCF Done:  E(RB3LYP) =  -3622.03181528     A.U. after   20 cycles
            NFock= 20  Conv=0.45D-08     -V/T= 2.0032

 **********************************************************************

            Population analysis using the SCF density.

 **********************************************************************

 Orbital symmetries:
       Occupied  (A) (A) (A) (A) (A) (A) (A) (A) (A) (A) (A) (A)
                 (A) (A) (A) (A) (A) (A) (A) (A) (A) (A) (A) (A)
                 (A) (A) (A) (A) (A) (A) (A) (A) (A) (A) (A) (A)
                 (A) (A) (A) (A) (A) (A) (A) (A) (A) (A) (A) (A)
                 (A) (A) (A) (A) (A) (A) (A) (A) (A) (A) (A) (A)
                 (A) (A) (A) (A) (A) (A) (A) (A) (A) (A) (A) (A)
                 (A) (A) (A) (A) (A) (A) (A) (A) (A) (A) (A) (A)
                 (A) (A) (A) (A) (A) (A) (A) (A) (A) (A) (A) (A)
                 (A) (A) (A) (A) (A) (A) (A) (A) (A) (A) (A) (A)
                 (A) (A) (A) (A) (A) (A) (A) (A) (A) (A) (A) (A)
                 (A) (A) (A) (A) (A) (A) (A) (A) (A) (A) (A) (A)
                 (A) (A) (A) (A) (A) (A) (A) (A) (A) (A) (A) (A)
                 (A) (A) (A) (A) (A) (A) (A) (A) (A) (A) (A) (A)
                 (A) (A) (A) (A) (A) (A) (A) (A) (A) (A) (A) (A)
                 (A) (A) (A) (A) (A) (A) (A) (A) (A) (A) (A) (A)
                 (A) (A) (A) (A) (A) (A) (A) (A) (A) (A) (A) (A)
                 (A) (A) (A) (A) (A) (A) (A) (A) (A) (A) (A) (A)
                 (A) (A) (A) (A) (A) (A) (A) (A) (A) (A) (A) (A)
                 (A) (A) (A) (A) (A) (A) (A)
       Virtual   (A) (A) (A) (A) (A) (A) (A) (A) (A) (A) (A) (A)
                 (A) (A) (A) (A) (A) (A) (A) (A) (A) (A) (A) (A)
                 (A) (A) (A) (A) (A) (A) (A) (A) (A) (A) (A) (A)
                 (A) (A) (A) (A) (A) (A) (A) (A) (A) (A) (A) (A)
                 (A) (A) (A) (A) (A) (A) (A) (A) (A) (A) (A) (A)
                 (A) (A) (A) (A) (A) (A) (A) (A) (A) (A) (A) (A)
                 (A) (A) (A) (A) (A) (A) (A) (A) (A) (A) (A) (A)
                 (A) (A) (A) (A) (A) (A) (A) (A) (A) (A) (A) (A)
                 (A) (A) (A) (A) (A) (A) (A) (A) (A) (A) (A) (A)
                 (A) (A) (A) (A) (A) (A) (A) (A) (A) (A) (A) (A)
                 (A) (A) (A) (A) (A) (A) (A) (A) (A) (A) (A) (A)
                 (A) (A) (A) (A) (A) (A) (A) (A) (A) (A) (A) (A)
                 (A) (A) (A) (A) (A) (A) (A) (A) (A) (A) (A) (A)
                 (A) (A) (A) (A) (A) (A) (A) (A) (A) (A) (A) (A)
                 (A) (A) (A) (A) (A) (A) (A) (A) (A) (A) (A) (A)
                 (A) (A) (A) (A) (A) (A) (A) (A) (A) (A) (A) (A)
                 (A) (A) (A) (A) (A) (A) (A) (A) (A) (A) (A) (A)
                 (A) (A) (A) (A) (A) (A) (A) (A) (A) (A) (A) (A)
                 (A) (A) (A) (A) (A) (A) (A) (A) (A) (A) (A) (A)
                 (A) (A) (A) (A) (A) (A) (A) (A) (A) (A) (A) (A)
                 (A) (A) (A) (A) (A) (A) (A) (A) (A) (A) (A) (A)
                 (A) (A) (A) (A) (A) (A) (A) (A) (A) (A) (A) (A)
                 (A) (A) (A) (A) (A) (A) (A) (A) (A) (A) (A) (A)
                 (A) (A) (A) (A) (A) (A) (A) (A) (A) (A) (A) (A)
                 (A) (A) (A) (A) (A) (A) (A) (A) (A) (A) (A) (A)
                 (A) (A) (A) (A) (A) (A) (A) (A) (A) (A) (A) (A)
                 (A) (A) (A) (A) (A) (A) (A) (A) (A) (A) (A) (A)
                 (A) (A) (A) (A) (A) (A) (A) (A) (A) (A) (A) (A)
                 (A) (A) (A) (A) (A) (A) (A) (A) (A) (A) (A) (A)
                 (A) (A) (A) (A) (A) (A) (A) (A) (A) (A) (A) (A)
                 (A) (A) (A) (A) (A) (A) (A) (A) (A) (A) (A) (A)
                 (A) (A) (A) (A) (A) (A) (A) (A) (A) (A) (A) (A)
                 (A) (A) (A) (A) (A) (A) (A) (A) (A) (A) (A) (A)
                 (A) (A) (A) (A) (A) (A) (A) (A) (A) (A) (A) (A)
                 (A) (A) (A) (A) (A) (A) (A) (A) (A) (A) (A) (A)
                 (A) (A) (A) (A) (A) (A) (A) (A) (A) (A) (A) (A)
                 (A) (A) (A) (A) (A) (A) (A) (A) (A) (A) (A) (A)
                 (A) (A) (A) (A) (A) (A) (A) (A) (A) (A) (A) (A)
                 (A) (A) (A) (A) (A) (A) (A) (A) (A) (A) (A) (A)
                 (A) (A) (A) (A) (A) (A) (A) (A) (A) (A) (A) (A)
                 (A) (A) (A) (A) (A) (A) (A) (A) (A) (A) (A) (A)
                 (A) (A) (A) (A) (A) (A) (A) (A) (A) (A) (A) (A)
                 (A) (A) (A) (A) (A) (A) (A) (A) (A) (A) (A) (A)
                 (A) (A) (A) (A) (A) (A) (A) (A) (A) (A) (A) (A)
                 (A) (A) (A) (A) (A) (A) (A) (A) (A) (A) (A) (A)
                 (A) (A) (A) (A) (A) (A) (A) (A) (A) (A) (A) (A)
                 (A) (A) (A) (A) (A) (A) (A) (A) (A) (A) (A) (A)
                 (A) (A) (A) (A) (A) (A) (A) (A) (A) (A) (A) (A)
                 (A) (A) (A) (A) (A) (A) (A) (A) (A) (A) (A) (A)
                 (A) (A) (A) (A) (A) (A) (A) (A) (A) (A) (A) (A)
                 (A) (A) (A) (A) (A) (A) (A) (A) (A) (A) (A) (A)
                 (A) (A) (A) (A) (A) (A) (A) (A) (A) (A) (A) (A)
                 (A) (A) (A) (A) (A) (A) (A) (A) (A) (A) (A) (A)
                 (A) (A) (A) (A) (A) (A) (A) (A) (A) (A) (A) (A)
                 (A) (A) (A) (A) (A) (A) (A) (A) (A) (A) (A) (A)
                 (A) (A) (A) (A) (A) (A) (A) (A) (A) (A) (A) (A)
                 (A) (A) (A) (A) (A) (A) (A) (A) (A) (A) (A) (A)
                 (A) (A) (A) (A) (A) (A) (A) (A) (A) (A) (A) (A)
                 (A) (A) (A) (A) (A) (A) (A) (A) (A) (A) (A) (A)
                 (A) (A) (A) (A) (A) (A) (A) (A) (A) (A) (A) (A)
                 (A) (A) (A) (A) (A) (A) (A) (A) (A) (A) (A) (A)
                 (A) (A) (A) (A) (A) (A) (A) (A) (A) (A) (A) (A)
                 (A) (A) (A) (A) (A) (A) (A) (A) (A) (A) (A) (A)
                 (A) (A) (A) (A) (A) (A) (A) (A) (A) (A) (A) (A)
                 (A) (A) (A) (A) (A) (A) (A) (A) (A) (A) (A) (A)
                 (A) (A) (A) (A) (A) (A) (A) (A) (A) (A) (A) (A)
                 (A) (A) (A) (A) (A) (A) (A) (A) (A) (A) (A) (A)
                 (A) (A) (A) (A) (A) (A) (A) (A) (A) (A) (A) (A)
                 (A) (A) (A) (A) (A) (A) (A) (A) (A) (A) (A) (A)
                 (A) (A) (A) (A) (A) (A) (A) (A) (A) (A) (A) (A)
                 (A) (A) (A) (A) (A) (A) (A) (A) (A) (A) (A) (A)
                 (A) (A) (A) (A) (A) (A) (A) (A) (A) (A) (A) (A)
                 (A) (A) (A) (A) (A) (A) (A) (A) (A) (A) (A) (A)
                 (A) (A) (A) (A) (A) (A) (A) (A) (A) (A) (A) (A)
                 (A) (A) (A) (A) (A) (A) (A) (A) (A) (A) (A) (A)
                 (A) (A) (A) (A) (A) (A) (A) (A) (A) (A) (A) (A)
                 (A) (A) (A) (A) (A) (A) (A) (A) (A) (A) (A) (A)
                 (A) (A) (A) (A) (A) (A) (A) (A) (A) (A) (A) (A)
                 (A) (A) (A) (A) (A) (A) (A) (A) (A) (A) (A) (A)
                 (A) (A) (A) (A) (A) (A) (A) (A) (A) (A) (A) (A)
                 (A) (A) (A) (A) (A) (A) (A) (A) (A) (A) (A) (A)
                 (A) (A) (A) (A) (A) (A) (A) (A) (A) (A) (A) (A)
                 (A) (A) (A) (A) (A) (A) (A) (A) (A) (A) (A) (A)
                 (A) (A) (A) (A) (A) (A) (A) (A) (A) (A) (A) (A)
                 (A) (A) (A) (A) (A) (A) (A) (A) (A) (A) (A) (A)
                 (A) (A) (A) (A) (A) (A) (A) (A) (A) (A) (A) (A)
                 (A) (A) (A) (A) (A) (A) (A) (A) (A) (A) (A) (A)
                 (A) (A) (A) (A) (A) (A) (A) (A) (A) (A) (A) (A)
                 (A) (A) (A) (A) (A) (A) (A) (A) (A) (A) (A) (A)
                 (A) (A) (A) (A) (A) (A) (A) (A) (A) (A) (A) (A)
                 (A) (A) (A) (A) (A) (A) (A) (A) (A) (A) (A) (A)
                 (A) (A) (A) (A) (A) (A) (A) (A) (A) (A) (A) (A)
                 (A) (A) (A) (A) (A) (A) (A) (A) (A) (A) (A) (A)
                 (A) (A) (A) (A) (A) (A) (A) (A) (A) (A) (A)
 The electronic state is 1-A.
 Alpha  occ. eigenvalues --  -88.94575 -88.88345 -88.87445 -19.16488 -19.10308
 Alpha  occ. eigenvalues --  -14.36680 -14.36349 -14.36277 -14.35735 -14.35684
 Alpha  occ. eigenvalues --  -10.30531 -10.24215 -10.24161 -10.22705 -10.22507
 Alpha  occ. eigenvalues --  -10.22408 -10.22325 -10.22319 -10.22233 -10.22144
 Alpha  occ. eigenvalues --  -10.21659 -10.21624 -10.21581 -10.21519 -10.21516
 Alpha  occ. eigenvalues --  -10.21287 -10.21082 -10.20961 -10.20954 -10.20633
 Alpha  occ. eigenvalues --  -10.20574 -10.20060 -10.20041 -10.19964 -10.19710
 Alpha  occ. eigenvalues --  -10.19640 -10.19539 -10.19262 -10.19202 -10.18898
 Alpha  occ. eigenvalues --  -10.18769 -10.18614 -10.18395 -10.18384 -10.18295
 Alpha  occ. eigenvalues --  -10.18258 -10.18185 -10.18184 -10.18066 -10.18054
 Alpha  occ. eigenvalues --  -10.18035 -10.17880 -10.17622 -10.17584 -10.17535
 Alpha  occ. eigenvalues --  -10.17510 -10.17479 -10.17291 -10.17283 -10.17237
 Alpha  occ. eigenvalues --  -10.16845 -10.16783  -8.02850  -7.96988  -7.96108
 Alpha  occ. eigenvalues --   -5.99265  -5.98683  -5.98451  -5.93304  -5.92925
 Alpha  occ. eigenvalues --   -5.92534  -5.92412  -5.92038  -5.91675  -1.10500
 Alpha  occ. eigenvalues --   -1.03535  -1.02480  -1.00263  -0.99464  -0.99225
 Alpha  occ. eigenvalues --   -0.91173  -0.90340  -0.89440  -0.88918  -0.87436
 Alpha  occ. eigenvalues --   -0.86002  -0.85556  -0.85291  -0.85103  -0.81808
 Alpha  occ. eigenvalues --   -0.81069  -0.80534  -0.80406  -0.78339  -0.77985
 Alpha  occ. eigenvalues --   -0.77535  -0.77493  -0.77214  -0.76173  -0.75739
 Alpha  occ. eigenvalues --   -0.75233  -0.75171  -0.74242  -0.73888  -0.73370
 Alpha  occ. eigenvalues --   -0.72342  -0.70535  -0.69349  -0.69323  -0.69205
 Alpha  occ. eigenvalues --   -0.68355  -0.66904  -0.66231  -0.64235  -0.63914
 Alpha  occ. eigenvalues --   -0.63528  -0.63162  -0.63000  -0.62718  -0.61908
 Alpha  occ. eigenvalues --   -0.61286  -0.59849  -0.59473  -0.58819  -0.57752
 Alpha  occ. eigenvalues --   -0.57327  -0.57161  -0.56915  -0.55494  -0.54958
 Alpha  occ. eigenvalues --   -0.54170  -0.54008  -0.53514  -0.52454  -0.52364
 Alpha  occ. eigenvalues --   -0.52012  -0.51817  -0.50322  -0.49770  -0.49509
 Alpha  occ. eigenvalues --   -0.49264  -0.48554  -0.48493  -0.47787  -0.47573
 Alpha  occ. eigenvalues --   -0.47415  -0.46891  -0.46854  -0.46800  -0.46533
 Alpha  occ. eigenvalues --   -0.46055  -0.45558  -0.45409  -0.45099  -0.44952
 Alpha  occ. eigenvalues --   -0.44867  -0.44745  -0.44720  -0.44429  -0.44032
 Alpha  occ. eigenvalues --   -0.43879  -0.43850  -0.43743  -0.43513  -0.42792
 Alpha  occ. eigenvalues --   -0.42712  -0.41841  -0.41813  -0.41734  -0.41167
 Alpha  occ. eigenvalues --   -0.40986  -0.40925  -0.40522  -0.40322  -0.39913
 Alpha  occ. eigenvalues --   -0.39838  -0.39676  -0.39634  -0.39425  -0.39174
 Alpha  occ. eigenvalues --   -0.39126  -0.39016  -0.38630  -0.38435  -0.38163
 Alpha  occ. eigenvalues --   -0.38101  -0.37208  -0.37020  -0.36711  -0.36483
 Alpha  occ. eigenvalues --   -0.36348  -0.36046  -0.35775  -0.35164  -0.34887
 Alpha  occ. eigenvalues --   -0.34573  -0.34423  -0.34121  -0.33687  -0.33510
 Alpha  occ. eigenvalues --   -0.33459  -0.32835  -0.32255  -0.31069  -0.30145
 Alpha  occ. eigenvalues --   -0.29460  -0.29127  -0.28842  -0.28692  -0.28352
 Alpha  occ. eigenvalues --   -0.28026  -0.27971  -0.27184  -0.25905  -0.25307
 Alpha  occ. eigenvalues --   -0.25146  -0.24929  -0.24425  -0.23163  -0.22064
 Alpha  occ. eigenvalues --   -0.20013  -0.19266  -0.18940
 Alpha virt. eigenvalues --   -0.11005  -0.07981  -0.05089  -0.03933  -0.03649
 Alpha virt. eigenvalues --   -0.03307  -0.03067  -0.02079  -0.00660  -0.00536
 Alpha virt. eigenvalues --   -0.00106  -0.00076   0.00646   0.00750   0.01533
 Alpha virt. eigenvalues --    0.01728   0.02025   0.02316   0.03444   0.03859
 Alpha virt. eigenvalues --    0.03959   0.04121   0.04280   0.04545   0.04589
 Alpha virt. eigenvalues --    0.04718   0.04996   0.05178   0.05503   0.05875
 Alpha virt. eigenvalues --    0.06132   0.06514   0.07001   0.07296   0.07681
 Alpha virt. eigenvalues --    0.07712   0.08259   0.08831   0.09714   0.09969
 Alpha virt. eigenvalues --    0.10005   0.10106   0.10493   0.10558   0.10964
 Alpha virt. eigenvalues --    0.11084   0.11214   0.11497   0.11592   0.11884
 Alpha virt. eigenvalues --    0.12064   0.12182   0.12432   0.12507   0.12872
 Alpha virt. eigenvalues --    0.13052   0.13203   0.13278   0.14444   0.14469
 Alpha virt. eigenvalues --    0.15055   0.15591   0.15798   0.15904   0.16177
 Alpha virt. eigenvalues --    0.16217   0.16585   0.16671   0.16785   0.17151
 Alpha virt. eigenvalues --    0.17313   0.17602   0.17934   0.18492   0.18910
 Alpha virt. eigenvalues --    0.19048   0.19244   0.19301   0.19700   0.19864
 Alpha virt. eigenvalues --    0.19957   0.20641   0.21306   0.21519   0.21770
 Alpha virt. eigenvalues --    0.22062   0.22221   0.22525   0.23237   0.23366
 Alpha virt. eigenvalues --    0.23556   0.23691   0.24108   0.24346   0.24730
 Alpha virt. eigenvalues --    0.25250   0.25381   0.25767   0.25931   0.26072
 Alpha virt. eigenvalues --    0.26682   0.26933   0.27145   0.27596   0.27842
 Alpha virt. eigenvalues --    0.28080   0.28328   0.28810   0.28946   0.29138
 Alpha virt. eigenvalues --    0.29280   0.29978   0.30171   0.30449   0.31008
 Alpha virt. eigenvalues --    0.31289   0.31370   0.31862   0.32161   0.32421
 Alpha virt. eigenvalues --    0.32762   0.32896   0.33057   0.33735   0.34253
 Alpha virt. eigenvalues --    0.34490   0.34716   0.34801   0.35114   0.35206
 Alpha virt. eigenvalues --    0.35584   0.35920   0.36098   0.36286   0.36575
 Alpha virt. eigenvalues --    0.36660   0.36789   0.37115   0.37324   0.37602
 Alpha virt. eigenvalues --    0.37649   0.37829   0.38124   0.38251   0.38432
 Alpha virt. eigenvalues --    0.38491   0.38764   0.39183   0.39267   0.39417
 Alpha virt. eigenvalues --    0.39718   0.39862   0.40067   0.40236   0.40322
 Alpha virt. eigenvalues --    0.40485   0.40571   0.40811   0.41201   0.41446
 Alpha virt. eigenvalues --    0.41464   0.41737   0.41856   0.42084   0.42219
 Alpha virt. eigenvalues --    0.42317   0.42715   0.42871   0.42901   0.42967
 Alpha virt. eigenvalues --    0.43173   0.43299   0.43516   0.43532   0.43716
 Alpha virt. eigenvalues --    0.43973   0.44118   0.44428   0.44623   0.44780
 Alpha virt. eigenvalues --    0.44939   0.45193   0.45355   0.45560   0.45591
 Alpha virt. eigenvalues --    0.45976   0.46221   0.46230   0.46388   0.46507
 Alpha virt. eigenvalues --    0.47083   0.47424   0.47785   0.47891   0.47952
[...]
 ! D168  D(38,40,53,54)        -10.2091         -DE/DX =    0.0                 !
 ! D169  D(41,40,53,52)         -7.4382         -DE/DX =    0.0                 !
 ! D170  D(41,40,53,54)        163.4796         -DE/DX =    0.0                 !
 ! D171  D(36,41,42,43)        173.8611         -DE/DX =    0.0                 !
 ! D172  D(36,41,42,50)        -11.0522         -DE/DX =    0.0                 !
 ! D173  D(40,41,42,43)         -8.7969         -DE/DX =    0.0                 !
 ! D174  D(40,41,42,50)        166.2899         -DE/DX =    0.0                 !
 ! D175  D(41,42,43,44)        174.0135         -DE/DX =    0.0                 !
 ! D176  D(41,42,43,52)         -3.2214         -DE/DX =    0.0                 !
 ! D177  D(50,42,43,44)         -1.9739         -DE/DX =    0.0                 !
 ! D178  D(50,42,43,52)       -179.2087         -DE/DX =    0.0                 !
 ! D179  D(41,42,50,49)       -174.8497         -DE/DX =    0.0                 !
 ! D180  D(41,42,50,51)        -13.4065         -DE/DX =    0.0                 !
 ! D181  D(43,42,50,49)          0.7401         -DE/DX =    0.0                 !
 ! D182  D(43,42,50,51)        162.1833         -DE/DX =    0.0                 !
 ! D183  D(42,43,44,45)       -171.5832         -DE/DX =    0.0                 !
 ! D184  D(42,43,44,49)          2.4207         -DE/DX =    0.0                 !
 ! D185  D(52,43,44,45)          4.93           -DE/DX =    0.0                 !
 ! D186  D(52,43,44,49)        178.934          -DE/DX =    0.0                 !
 ! D187  D(42,43,52,53)         10.6201         -DE/DX =    0.0                 !
 ! D188  D(42,43,52,56)       -168.4594         -DE/DX =    0.0                 !
 ! D189  D(44,43,52,53)       -165.6104         -DE/DX =    0.0                 !
 ! D190  D(44,43,52,56)         15.3101         -DE/DX =    0.0                 !
 ! D191  D(43,44,45,46)        176.8434         -DE/DX =    0.0                 !
 ! D192  D(43,44,45,83)         -1.3296         -DE/DX =    0.0                 !
 ! D193  D(49,44,45,46)          3.3564         -DE/DX =    0.0                 !
 ! D194  D(49,44,45,83)       -174.8165         -DE/DX =    0.0                 !
 ! D195  D(43,44,49,48)       -179.3605         -DE/DX =    0.0                 !
 ! D196  D(43,44,49,50)         -2.026          -DE/DX =    0.0                 !
 ! D197  D(45,44,49,48)         -4.0808         -DE/DX =    0.0                 !
 ! D198  D(45,44,49,50)        173.2537         -DE/DX =    0.0                 !
 ! D199  D(44,45,46,47)         -0.592          -DE/DX =    0.0                 !
 ! D200  D(44,45,46,84)        179.9032         -DE/DX =    0.0                 !
 ! D201  D(83,45,46,47)        177.6216         -DE/DX =    0.0                 !
 ! D202  D(83,45,46,84)         -1.8832         -DE/DX =    0.0                 !
 ! D203  D(45,46,47,48)         -1.7034         -DE/DX =    0.0                 !
 ! D204  D(45,46,47,85)        179.1896         -DE/DX =    0.0                 !
 ! D205  D(84,46,47,48)        177.8004         -DE/DX =    0.0                 !
 ! D206  D(84,46,47,85)         -1.3065         -DE/DX =    0.0                 !
 ! D207  D(46,47,48,49)          1.049          -DE/DX =    0.0                 !
 ! D208  D(46,47,48,86)       -178.9808         -DE/DX =    0.0                 !
 ! D209  D(85,47,48,49)       -179.8411         -DE/DX =    0.0                 !
 ! D210  D(85,47,48,86)          0.1291         -DE/DX =    0.0                 !
 ! D211  D(47,48,49,44)          1.8823         -DE/DX =    0.0                 !
 ! D212  D(47,48,49,50)       -174.9202         -DE/DX =    0.0                 !
 ! D213  D(86,48,49,44)       -178.0877         -DE/DX =    0.0                 !
 ! D214  D(86,48,49,50)          5.1098         -DE/DX =    0.0                 !
 ! D215  D(44,49,50,42)          0.8393         -DE/DX =    0.0                 !
 ! D216  D(44,49,50,51)       -161.7977         -DE/DX =    0.0                 !
 ! D217  D(48,49,50,42)        177.9786         -DE/DX =    0.0                 !
 ! D218  D(48,49,50,51)         15.3416         -DE/DX =    0.0                 !
 ! D219  D(42,50,51,87)        -18.4253         -DE/DX =    0.0                 !
 ! D220  D(42,50,51,88)       -136.4556         -DE/DX =    0.0                 !
 ! D221  D(42,50,51,89)        103.4828         -DE/DX =    0.0                 !
 ! D222  D(49,50,51,87)        140.8774         -DE/DX =    0.0                 !
 ! D223  D(49,50,51,88)         22.8471         -DE/DX =    0.0                 !
 ! D224  D(49,50,51,89)        -97.2145         -DE/DX =    0.0                 !
 ! D225  D(43,52,53,40)         -5.4447         -DE/DX =    0.0                 !
 ! D226  D(43,52,53,54)       -178.8166         -DE/DX =    0.0                 !
 ! D227  D(56,52,53,40)        173.7983         -DE/DX =    0.0                 !
 ! D228  D(56,52,53,54)          0.4264         -DE/DX =    0.0                 !
 ! D229  D(43,52,56,55)        179.6312         -DE/DX =    0.0                 !
 ! D230  D(43,52,56,57)         20.149          -DE/DX =    0.0                 !
 ! D231  D(53,52,56,55)          0.4563         -DE/DX =    0.0                 !
 ! D232  D(53,52,56,57)       -159.0258         -DE/DX =    0.0                 !
 ! D233  D(40,53,54,55)       -172.6965         -DE/DX =    0.0                 !
 ! D234  D(40,53,54,61)          2.2808         -DE/DX =    0.0                 !
 ! D235  D(52,53,54,55)         -1.1159         -DE/DX =    0.0                 !
 ! D236  D(52,53,54,61)        173.8614         -DE/DX =    0.0                 !
 ! D237  D(53,54,55,56)          1.4241         -DE/DX =    0.0                 !
 ! D238  D(53,54,55,58)        178.9448         -DE/DX =    0.0                 !
 ! D239  D(61,54,55,56)       -174.6625         -DE/DX =    0.0                 !
 ! D240  D(61,54,55,58)          2.8583         -DE/DX =    0.0                 !
 ! D241  D(53,54,61,60)       -177.1404         -DE/DX =    0.0                 !
 ! D242  D(53,54,61,96)          1.3965         -DE/DX =    0.0                 !
 ! D243  D(55,54,61,60)         -2.5836         -DE/DX =    0.0                 !
 ! D244  D(55,54,61,96)        175.9534         -DE/DX =    0.0                 !
 ! D245  D(54,55,56,52)         -1.1926         -DE/DX =    0.0                 !
 ! D246  D(54,55,56,57)        159.5831         -DE/DX =    0.0                 !
 ! D247  D(58,55,56,52)       -178.5533         -DE/DX =    0.0                 !
 ! D248  D(58,55,56,57)        -17.7775         -DE/DX =    0.0                 !
 ! D249  D(54,55,58,59)         -1.0903         -DE/DX =    0.0                 !
 ! D250  D(54,55,58,93)        178.7661         -DE/DX =    0.0                 !
 ! D251  D(56,55,58,59)        175.9535         -DE/DX =    0.0                 !
 ! D252  D(56,55,58,93)         -4.1901         -DE/DX =    0.0                 !
 ! D253  D(52,56,57,90)          9.9653         -DE/DX =    0.0                 !
 ! D254  D(52,56,57,91)       -111.6937         -DE/DX =    0.0                 !
 ! D255  D(52,56,57,92)        128.2071         -DE/DX =    0.0                 !
 ! D256  D(55,56,57,90)       -147.1686         -DE/DX =    0.0                 !
 ! D257  D(55,56,57,91)         91.1723         -DE/DX =    0.0                 !
 ! D258  D(55,56,57,92)        -28.9268         -DE/DX =    0.0                 !
 ! D259  D(55,58,59,60)         -0.9665         -DE/DX =    0.0                 !
 ! D260  D(55,58,59,94)        179.7304         -DE/DX =    0.0                 !
 ! D261  D(93,58,59,60)        179.1764         -DE/DX =    0.0                 !
 ! D262  D(93,58,59,94)         -0.1267         -DE/DX =    0.0                 !
 ! D263  D(58,59,60,61)          1.1936         -DE/DX =    0.0                 !
 ! D264  D(58,59,60,95)       -178.364          -DE/DX =    0.0                 !
 ! D265  D(94,59,60,61)       -179.5052         -DE/DX =    0.0                 !
 ! D266  D(94,59,60,95)          0.9371         -DE/DX =    0.0                 !
 ! D267  D(59,60,61,54)          0.6586         -DE/DX =    0.0                 !
 ! D268  D(59,60,61,96)       -177.9184         -DE/DX =    0.0                 !
 ! D269  D(95,60,61,54)       -179.7825         -DE/DX =    0.0                 !
 ! D270  D(95,60,61,96)          1.6405         -DE/DX =    0.0                 !
 --------------------------------------------------------------------------------
 GradGradGradGradGradGradGradGradGradGradGradGradGradGradGradGradGradGrad

 Stoichiometry    C52H35N5O2S3
 Framework group  C1[X(C52H35N5O2S3)]
 Deg. of freedom   285
 Full point group                 C1      NOp   1
 Largest Abelian subgroup         C1      NOp   1
 Largest concise Abelian subgroup C1      NOp   1
                         Standard orientation:                         
 ---------------------------------------------------------------------
 Center     Atomic      Atomic             Coordinates (Angstroms)
 Number     Number       Type             X           Y           Z
 ---------------------------------------------------------------------
      1          6           0        9.572500   -2.625230    0.622714
      2          6           0        8.239196   -1.991206    0.350223
      3          6           0        8.066035   -0.662939   -0.006048
      4          6           0        9.037824    0.329136   -0.178257
      5          6           0        9.868849    1.200972   -0.330786
      6          6           0       10.832902    2.223419   -0.509322
      7          6           0       12.201950    1.967704   -0.302263
      8          6           0       13.138535    2.976377   -0.470222
      9          6           0       12.744022    4.265838   -0.849649
     10          6           0       13.707576    5.391186   -1.067154
     11          8           0       14.936269    5.262229   -0.496154
     12          8           0       13.444192    6.372847   -1.707431
     13          6           0       11.385741    4.515923   -1.081711
     14          6           0       10.442067    3.519119   -0.906263
     15         16           0        6.367486   -0.285381   -0.247341
     16          6           0        5.892851   -1.931697    0.136652
     17          6           0        4.491240   -2.321388    0.119400
     18          6           0        4.045086   -3.656567    0.426643
     19          7           0        4.826441   -4.685318    0.757553
     20         16           0        3.855372   -5.979721    1.008542
     21          7           0        2.404868   -5.284678    0.707382
     22          6           0        2.628103   -4.007303    0.397647
     23          6           0        3.477946   -1.431110   -0.195564
     24          6           0        2.110145   -1.768213   -0.221970
     25          6           0        1.618507   -3.032369    0.062827
     26          6           0        0.200274   -3.344310    0.024624
     27         16           0       -0.978552   -2.124581   -0.437665
     28          6           0       -0.451555   -4.524327    0.308653
     29          6           0       -1.866186   -4.474899    0.179422
     30          6           0       -2.739275   -5.660670    0.497717
     31          6           0       -2.317711   -3.230734   -0.215118
     32          6           0       -3.689063   -2.757154   -0.457375
     33          6           0       -4.589015   -3.540927   -1.209351
     34          6           0       -5.867652   -3.088000   -1.501455
     35          6           0       -4.105764   -1.510631    0.031617
     36          6           0       -5.403856   -1.047611   -0.203123
     37          6           0       -6.253955   -1.838216   -1.020255
     38          7           0       -7.435109   -1.157498   -1.249887
     39          6           0       -8.634127   -1.833175   -1.718003
     40          6           0       -7.360400    0.089678   -0.632982
     41          6           0       -6.156296    0.155140    0.118542
     42          6           0       -5.987749    1.267289    0.981336
     43          6           0       -6.883402    2.369861    0.964180
     44          6           0       -6.497472    3.242595    2.059568
     45          6           0       -7.033648    4.384988    2.672851
     46          6           0       -6.401217    4.940793    3.778761
     47          6           0       -5.235774    4.370533    4.304751
     48          6           0       -4.704060    3.211801    3.751516
     49          6           0       -5.351325    2.651750    2.649384
     50          7           0       -5.061991    1.459295    1.999834
     51          6           0       -4.207686    0.450846    2.605945
     52          6           0       -7.921813    2.358980    0.002547
     53          6           0       -8.220281    1.205743   -0.771821
     54          6           0       -9.312962    1.571147   -1.661645
     55          6           0       -9.632895    2.919542   -1.357383
     56          7           0       -8.779443    3.386228   -0.367765
     57          6           0       -8.567981    4.810508   -0.161228
     58          6           0      -10.628968    3.627450   -2.029638
     59          6           0      -11.314396    2.982705   -3.052244
     60          6           0      -10.991458    1.666990   -3.402555
     61          6           0       -9.999776    0.966209   -2.724938
     62          6           0        7.009795   -2.689606    0.425960
     63          1           0       10.381571   -1.899431    0.536912
     64          1           0        9.767996   -3.438633   -0.082877
     65          1           0        9.601650   -3.053173    1.629290
     66          1           0       12.518966    0.972137   -0.018074
     67          1           0       14.187707    2.731158   -0.337395
     68          1           0       14.943136    4.517058    0.115055
     69          1           0       11.092449    5.508422   -1.400004
     70          1           0        9.392654    3.724733   -1.076925
     71          1           0        3.734918   -0.406575   -0.439178
     72          1           0        1.413764   -0.979800   -0.482094
     73          1           0        0.082118   -5.408663    0.622755
     74          1           0       -2.326673   -6.219817    1.341206
     75          1           0       -2.803366   -6.353436   -0.348561
     76          1           0       -3.754757   -5.356365    0.754493
     77          1           0       -4.256931   -4.487894   -1.614906
     78          1           0       -6.527019   -3.678286   -2.126191
     79          1           0       -3.397248   -0.916793    0.588840
     80          1           0       -8.669310   -1.903308   -2.809266
     81          1           0       -9.514439   -1.304965   -1.361471
     82          1           0       -8.656745   -2.845031   -1.306219
     83          1           0       -7.951805    4.829499    2.318867
     84          1           0       -6.822509    5.824297    4.244431
     85          1           0       -4.749911    4.826352    5.159705
     86          1           0       -3.811723    2.761687    4.168884
     87          1           0       -4.598775   -0.540911    2.394537
     88          1           0       -4.210287    0.588970    3.688162
     89          1           0       -3.174548    0.515860    2.251874
     90          1           0       -7.549779    4.985612    0.174886
     91          1           0       -9.266547    5.229593    0.569169
     92          1           0       -8.706522    5.332766   -1.110468
     93          1           0      -10.866518    4.650342   -1.763883
     94          1           0      -12.096272    3.508388   -3.588056
     95          1           0      -11.516694    1.186325   -4.219928
     96          1           0       -9.760401   -0.033771   -3.050741
     97          1           0        6.935361   -3.733875    0.688510
 ---------------------------------------------------------------------
 Rotational constants (GHZ):      0.0447281      0.0097132      0.0084800
 1\1\GINC-N023\FOpt\RB3LYP\6-311G(d,p)\C52H35N5O2S3\R2532\16-Sep-2021\0
 \\#N B3LYP/6-311G(d,p) Opt\\aaa\\0,1\C,9.5725,-2.62523,0.622714\C,8.23
 9196,-1.991206,0.350223\C,8.066035,-0.662939,-0.006048\C,9.037824,0.32
 9136,-0.178257\C,9.868849,1.200972,-0.330786\C,10.832902,2.223419,-0.5
 09322\C,12.20195,1.967704,-0.302263\C,13.138535,2.976377,-0.470222\C,1
 2.744022,4.265838,-0.849649\C,13.707576,5.391186,-1.067154\O,14.936269
 ,5.262229,-0.496154\O,13.444192,6.372847,-1.707431\C,11.385741,4.51592
 3,-1.081711\C,10.442067,3.519119,-0.906263\S,6.367486,-0.285381,-0.247
 341\C,5.892851,-1.931697,0.136652\C,4.49124,-2.321388,0.1194\C,4.04508
 6,-3.656567,0.426643\N,4.826441,-4.685318,0.757553\S,3.855372,-5.97972
 1,1.008542\N,2.404868,-5.284678,0.707382\C,2.628103,-4.007303,0.397647
 \C,3.477946,-1.43111,-0.195564\C,2.110145,-1.768213,-0.22197\C,1.61850
 7,-3.032369,0.062827\C,0.200274,-3.34431,0.024624\S,-0.978552,-2.12458
 1,-0.437665\C,-0.451555,-4.524327,0.308653\C,-1.866186,-4.474899,0.179
 422\C,-2.739275,-5.66067,0.497717\C,-2.317711,-3.230734,-0.215118\C,-3
 .689063,-2.757154,-0.457375\C,-4.589015,-3.540927,-1.209351\C,-5.86765
 2,-3.088,-1.501455\C,-4.105764,-1.510631,0.031617\C,-5.403856,-1.04761
 1,-0.203123\C,-6.253955,-1.838216,-1.020255\N,-7.435109,-1.157498,-1.2
 49887\C,-8.634127,-1.833175,-1.718003\C,-7.3604,0.089678,-0.632982\C,-
 6.156296,0.15514,0.118542\C,-5.987749,1.267289,0.981336\C,-6.883402,2.
 369861,0.96418\C,-6.497472,3.242595,2.059568\C,-7.033648,4.384988,2.67
 2851\C,-6.401217,4.940793,3.778761\C,-5.235774,4.370533,4.304751\C,-4.
 70406,3.211801,3.751516\C,-5.351325,2.65175,2.649384\N,-5.061991,1.459
 295,1.999834\C,-4.207686,0.450846,2.605945\C,-7.921813,2.35898,0.00254
 7\C,-8.220281,1.205743,-0.771821\C,-9.312962,1.571147,-1.661645\C,-9.6
 32895,2.919542,-1.357383\N,-8.779443,3.386228,-0.367765\C,-8.567981,4.
 810508,-0.161228\C,-10.628968,3.62745,-2.029638\C,-11.314396,2.982705,
 -3.052244\C,-10.991458,1.66699,-3.402555\C,-9.999776,0.966209,-2.72493
 8\C,7.009795,-2.689606,0.42596\H,10.381571,-1.899431,0.536912\H,9.7679
 96,-3.438633,-0.082877\H,9.60165,-3.053173,1.62929\H,12.518966,0.97213
 7,-0.018074\H,14.187707,2.731158,-0.337395\H,14.943136,4.517058,0.1150
 55\H,11.092449,5.508422,-1.400004\H,9.392654,3.724733,-1.076925\H,3.73
 4918,-0.406575,-0.439178\H,1.413764,-0.9798,-0.482094\H,0.082118,-5.40
 8663,0.622755\H,-2.326673,-6.219817,1.341206\H,-2.803366,-6.353436,-0.
 348561\H,-3.754757,-5.356365,0.754493\H,-4.256931,-4.487894,-1.614906\
 H,-6.527019,-3.678286,-2.126191\H,-3.397248,-0.916793,0.58884\H,-8.669
 31,-1.903308,-2.809266\H,-9.514439,-1.304965,-1.361471\H,-8.656745,-2.
 845031,-1.306219\H,-7.951805,4.829499,2.318867\H,-6.822509,5.824297,4.
 244431\H,-4.749911,4.826352,5.159705\H,-3.811723,2.761687,4.168884\H,-
 4.598775,-0.540911,2.394537\H,-4.210287,0.58897,3.688162\H,-3.174548,0
 .51586,2.251874\H,-7.549779,4.985612,0.174886\H,-9.266547,5.229593,0.5
 69169\H,-8.706522,5.332766,-1.110468\H,-10.866518,4.650342,-1.763883\H
 ,-12.096272,3.508388,-3.588056\H,-11.516694,1.186325,-4.219928\H,-9.76
 0401,-0.033771,-3.050741\H,6.935361,-3.733875,0.68851\\Version=ES64L-G
 09RevD.01\State=1-A\HF=-3622.0318153\RMSD=4.480e-09\RMSF=1.621e-06\Dip
 ole=-2.0803031,-2.0469407,1.0148743\Quadrupole=-1.438463,0.0278313,1.4
 106318,-50.529796,32.0451887,10.6799738\PG=C01 [X(C52H35N5O2S3)]\\@


 If fifty million people say a stupid thing,
 it is still a stupid thing.
                   -- Anatole France
 Job cpu time:       0 days  2 hours 24 minutes  0.2 seconds.
 File lengths (MBytes):  RWF=    985 Int=      0 D2E=      0 Chk=    113 Scr=      1
 Normal termination of Gaussian 09 at Thu Sep 16 13:11:04 2021.
