 Entering Gaussian System, Link 0=/usr/local/apps//g09/g09
 Input=ES.com
 Output=ES.out
 Initial command:
 /usr/local/apps//g09/l1.exe "/tmp/bnp.467321.sequoia/Gau-20090.inp" -scrdir="/tmp/bnp.467321.sequoia/"
 Entering Link 1 = /usr/local/apps//g09/l1.exe PID=     20091.
  
 Copyright (c) 1988,1990,1992,1993,1995,1998,2003,2009,2013,
            Gaussian, Inc.  All Rights Reserved.
  
 This is part of the Gaussian(R) 09 program.  It is based on
 the Gaussian(R) 03 system (copyright 2003, Gaussian, Inc.),
 the Gaussian(R) 98 system (copyright 1998, Gaussian, Inc.),
 the Gaussian(R) 94 system (copyright 1995, Gaussian, Inc.),
 the Gaussian 92(TM) system (copyright 1992, Gaussian, Inc.),
 the Gaussian 90(TM) system (copyright 1990, Gaussian, Inc.),
 the Gaussian 88(TM) system (copyright 1988, Gaussian, Inc.),
 the Gaussian 86(TM) system (copyright 1986, Carnegie Mellon
 University), and the Gaussian 82(TM) system (copyright 1983,
 Carnegie Mellon University). Gaussian is a federally registered
 trademark of Gaussian, Inc.
  
 This software contains proprietary and confidential information,
 including trade secrets, belonging to Gaussian, Inc.
  
 This software is provided under written license and may be
 used, copied, transmitted, or stored only in accord with that
 written license.
  
 The following legend is applicable only to US Government
 contracts under FAR:
  
                    RESTRICTED RIGHTS LEGEND
  
 Use, reproduction and disclosure by the US Government is
 subject to restrictions as set forth in subparagraphs (a)
 and (c) of the Commercial Computer Software - Restricted
 Rights clause in FAR 52.227-19.
  
 Gaussian, Inc.
 340 Quinnipiac St., Bldg. 40, Wallingford CT 06492
  
  
 ---------------------------------------------------------------
 Warning -- This program may not be used in any manner that
 competes with the business of Gaussian, Inc. or will provide
 assistance to any competitor of Gaussian, Inc.  The licensee
 of this program is prohibited from giving any competitor of
 Gaussian, Inc. access to this program.  By using this program,
 the user acknowledges that Gaussian, Inc. is engaged in the
 business of creating and licensing software in the field of
 computational chemistry and represents and warrants to the
 licensee that it is not a competitor of Gaussian, Inc. and that
 it will not use this program in any manner prohibited above.
 ---------------------------------------------------------------
  

 Cite this work as:
 Gaussian 09, Revision D.01,
 M. J. Frisch, G. W. Trucks, H. B. Schlegel, G. E. Scuseria, 
 M. A. Robb, J. R. Cheeseman, G. Scalmani, V. Barone, B. Mennucci, 
 G. A. Petersson, H. Nakatsuji, M. Caricato, X. Li, H. P. Hratchian, 
 A. F. Izmaylov, J. Bloino, G. Zheng, J. L. Sonnenberg, M. Hada, 
 M. Ehara, K. Toyota, R. Fukuda, J. Hasegawa, M. Ishida, T. Nakajima, 
 Y. Honda, O. Kitao, H. Nakai, T. Vreven, J. A. Montgomery, Jr., 
 J. E. Peralta, F. Ogliaro, M. Bearpark, J. J. Heyd, E. Brothers, 
 K. N. Kudin, V. N. Staroverov, T. Keith, R. Kobayashi, J. Normand, 
 K. Raghavachari, A. Rendell, J. C. Burant, S. S. Iyengar, J. Tomasi, 
 M. Cossi, N. Rega, J. M. Millam, M. Klene, J. E. Knox, J. B. Cross, 
 V. Bakken, C. Adamo, J. Jaramillo, R. Gomperts, R. E. Stratmann, 
 O. Yazyev, A. J. Austin, R. Cammi, C. Pomelli, J. W. Ochterski, 
 R. L. Martin, K. Morokuma, V. G. Zakrzewski, G. A. Voth, 
 P. Salvador, J. J. Dannenberg, S. Dapprich, A. D. Daniels, 
 O. Farkas, J. B. Foresman, J. V. Ortiz, J. Cioslowski, 
 and D. J. Fox, Gaussian, Inc., Wallingford CT, 2013.
 
 ******************************************
 Gaussian 09:  ES64L-G09RevD.01 24-Apr-2013
                18-May-2021 
 ******************************************
 %mem=8gb
 -----------------------------------
 #N TD(NStates=10) B3lYP/6-311G(d,p)
 -----------------------------------
 1/38=1/1;
 2/12=2,17=6,18=5,40=1/2;
 3/5=4,6=6,7=101,11=9,16=1,25=1,30=1,74=-5/1,2,8,3;
 4//1;
 5/5=2,38=5/2;
 8/6=1,10=2,108=10/1;
 9/41=10,42=1,70=2/14;
 6/7=2,8=2,9=2,10=2/1;
 99/5=1,9=1/99;
 ----
 Name
 ----
 Symbolic Z-matrix:
 Charge =  0 Multiplicity = 1
 6                    -7.54656   1.28031   2.6831 
 6                    -8.59284   0.80025   1.67846 
 6                    -7.98235   0.25077   0.55953 
 6                    -6.56003   0.31217   0.72128 
 16                   -5.13957  -0.12657  -0.15444 
 6                    -4.11068   0.4976    1.15417 
 6                    -4.88606   1.00911   2.18405 
 6                    -6.26721   0.90307   1.93847 
 1                    -4.43472   1.43657   3.06607 
 6                    -2.66474   0.42197   1.03683 
 6                    -2.033    -0.18067  -0.03872 
 6                    -0.63086  -0.25993  -0.18826 
 6                     0.27148   0.24855   0.72708 
 6                    -0.32531   0.88604   1.87025 
 7                     0.34172   1.43228   2.88941 
 16                   -0.76461   2.00935   3.9457 
 7                    -2.13753   1.5848    3.1562 
 6                    -1.7736    0.97165   2.02909 
 6                     1.72791   0.12979   0.53474 
 6                     2.6277    1.12709   0.94941 
 6                     3.98947   1.01524   0.71634 
 6                     4.52046  -0.10516   0.05667 
 6                     3.63088  -1.11158  -0.35387 
 6                     2.27135  -0.99257  -0.11446 
 1                     1.61859  -1.79985  -0.426 
 1                     4.01251  -1.99078  -0.85704 
 7                     5.90597  -0.21808  -0.18318 
 6                     6.54171  -1.49099  -0.1626 
 6                     7.45228  -1.84959  -1.16461 
 6                     8.08     -3.08788  -1.14278 
 6                     7.81446  -4.02236  -0.12908 
 6                     6.90281  -3.64961   0.87124 
 6                     6.28186  -2.40695   0.86377 
 1                     5.59547  -2.13832   1.65775 
 1                     6.69846  -4.33368   1.68738 
 6                     8.43148  -5.37235  -0.12359 
 6                     7.65544  -6.505     0.18419 
 6                     8.17534  -7.78766   0.17935 
 6                     9.52092  -7.9917   -0.14652 
 6                     10.32216  -6.89079  -0.44919 
 6                     9.78101  -5.60366  -0.43655 
 8                     10.63086  -4.56749  -0.77251 
 6                     11.17461  -3.85486   0.34196 
 1                     11.76885  -4.52187   0.97704 
 1                     11.81864  -3.07957  -0.07252 
 1                     10.38578  -3.39024   0.94155 
 1                     11.36699  -6.98996  -0.7089 
 8                     9.95073  -9.28402  -0.14462 
 6                     11.3039  -9.54734  -0.48928 
 1                     11.41934  -10.62851  -0.43474 
 1                     11.53197  -9.20921  -1.50608 
 1                     11.99721  -9.07373   0.21479 
 1                     7.55721  -8.6482    0.40295 
 1                     6.603    -6.36838   0.40502 
 1                     8.7765   -3.34401  -1.92978 
 1                     7.6608   -1.15274  -1.96744 
 6                     6.68419   0.93876  -0.47747 
 6                     7.92403   1.13789   0.14191 
 6                     8.69214   2.25591  -0.15308 
 6                     8.25176   3.22435  -1.06829 
 6                     7.00285   3.01772  -1.67325 
 6                     6.23404   1.8943   -1.39461 
 1                     5.27614   1.75911  -1.88237 
 1                     6.62294   3.75359  -2.37299 
 6                     9.07436   4.40407  -1.43832 
 6                     9.74153   5.20481  -0.48801 
 6                     10.49042   6.32069  -0.87975 
 6                     10.58911   6.65654  -2.23319 
 6                     9.93879   5.87832  -3.19152 
 6                     9.20075   4.77855  -2.78304 
 1                     8.71441   4.16688  -3.53423 
 1                     10.03233   6.14434  -4.2365 
 8                     11.29944   7.72032  -2.7049 
 6                     11.98548   8.55072  -1.78071 
 1                     12.74533   7.9914   -1.22289 
 1                     12.4738   9.31926  -2.37762 
 1                     11.29419   9.02763  -1.07644 
 1                     10.98609   6.92239  -0.13449 
 8                     9.60272   4.84075   0.8206 
 6                     10.18347   5.64735   1.83329 
 1                     11.27563   5.6807    1.74829 
 1                     9.78476   6.66773   1.81342 
 1                     9.91281   5.17601   2.77681 
 1                     9.6461    2.38607   0.33983 
 1                     8.28588   0.40521   0.8534 
 1                     4.65463   1.80255   1.04771 
 1                     2.25591   1.99886   1.46887 
 1                    -0.2525   -0.72702  -1.0894 
 1                    -2.636    -0.61438  -0.82843 
 16                   -9.12379  -0.30554  -0.60542 
 6                    -10.46958   0.21283   0.42408 
 6                    -9.994     0.77727   1.5999 
 1                    -10.6534   1.17449   2.35995 
 6                    -11.84609   0.0265    0.00297 
 6                    -12.91105   0.18829   0.91453 
 6                    -14.2207   0.01977   0.51357 
 6                    -14.55361  -0.32748  -0.81418 
 6                    -13.48823  -0.49537  -1.72485 
 6                    -12.17879  -0.32003  -1.32517 
 1                    -11.39185  -0.44104  -2.06047 
 1                    -13.68379  -0.75868  -2.7551 
 6                    -15.95197  -0.48436  -1.12877 
 6                    -16.59811  -0.8011   -2.28498 
 6                    -15.96947  -1.06519  -3.53045 
 7                    -15.5442  -1.29491  -4.58391 
 6                    -18.10357  -0.87839  -2.24275 
 8                    -18.73802  -0.67251  -1.24304 
 8                    -18.72331  -1.19529  -3.39914 
 1                    -18.08775  -1.33222  -4.11588 
 1                    -16.63723  -0.32316  -0.30036 
 1                    -15.01849   0.14807   1.23717 
 1                    -12.7047   0.43079   1.94917 
 6                    -7.63727   2.80425   2.9116 
 1                    -7.55861   3.34721   1.96768 
 1                    -8.58932   3.06642   3.38145 
 1                    -6.83151   3.14023   3.56951 
 6                    -7.66091   0.52423   4.0242 
 1                    -7.60261  -0.55531   3.87171 
 1                    -6.85302   0.81979   4.69878 
 1                    -8.61149   0.75222   4.51444 
 
 Stoichiometry    C61H46N4O6S3
 Framework group  C1[X(C61H46N4O6S3)]
 Deg. of freedom   354
 Full point group                 C1      NOp   1
 Largest Abelian subgroup         C1      NOp   1
 Largest concise Abelian subgroup C1      NOp   1
                         Standard orientation:                         
 ---------------------------------------------------------------------
 Center     Atomic      Atomic             Coordinates (Angstroms)
 Number     Number       Type             X           Y           Z
 ---------------------------------------------------------------------
      1          6           0        7.546561   -1.280310    2.683097
      2          6           0        8.592842   -0.800254    1.678459
      3          6           0        7.982348   -0.250768    0.559527
      4          6           0        6.560027   -0.312166    0.721275
      5         16           0        5.139569    0.126570   -0.154442
      6          6           0        4.110677   -0.497597    1.154165
      7          6           0        4.886064   -1.009111    2.184047
      8          6           0        6.267212   -0.903068    1.938473
      9          1           0        4.434723   -1.436566    3.066072
     10          6           0        2.664740   -0.421969    1.036834
     11          6           0        2.033004    0.180668   -0.038723
     12          6           0        0.630861    0.259925   -0.188264
     13          6           0       -0.271476   -0.248550    0.727084
     14          6           0        0.325305   -0.886039    1.870252
     15          7           0       -0.341718   -1.432283    2.889414
     16         16           0        0.764611   -2.009353    3.945696
     17          7           0        2.137532   -1.584801    3.156203
     18          6           0        1.773595   -0.971653    2.029089
     19          6           0       -1.727905   -0.129793    0.534743
     20          6           0       -2.627700   -1.127090    0.949407
     21          6           0       -3.989468   -1.015240    0.716343
     22          6           0       -4.520458    0.105162    0.056672
     23          6           0       -3.630876    1.111584   -0.353867
     24          6           0       -2.271351    0.992571   -0.114460
     25          1           0       -1.618590    1.799849   -0.426000
     26          1           0       -4.012512    1.990779   -0.857038
     27          7           0       -5.905965    0.218076   -0.183178
     28          6           0       -6.541714    1.490986   -0.162595
     29          6           0       -7.452277    1.849593   -1.164607
     30          6           0       -8.080003    3.087880   -1.142777
     31          6           0       -7.814461    4.022365   -0.129081
     32          6           0       -6.902809    3.649608    0.871239
     33          6           0       -6.281857    2.406948    0.863770
     34          1           0       -5.595470    2.138317    1.657746
     35          1           0       -6.698462    4.333679    1.687379
     36          6           0       -8.431479    5.372355   -0.123591
     37          6           0       -7.655440    6.504999    0.184186
     38          6           0       -8.175336    7.787662    0.179345
     39          6           0       -9.520917    7.991698   -0.146516
     40          6           0      -10.322163    6.890794   -0.449187
     41          6           0       -9.781010    5.603663   -0.436548
     42          8           0      -10.630860    4.567494   -0.772508
     43          6           0      -11.174607    3.854858    0.341958
     44          1           0      -11.768846    4.521873    0.977035
     45          1           0      -11.818644    3.079567   -0.072520
     46          1           0      -10.385781    3.390238    0.941552
     47          1           0      -11.366991    6.989955   -0.708897
     48          8           0       -9.950727    9.284025   -0.144623
     49          6           0      -11.303899    9.547345   -0.489284
     50          1           0      -11.419341   10.628514   -0.434744
     51          1           0      -11.531966    9.209206   -1.506079
     52          1           0      -11.997205    9.073730    0.214791
     53          1           0       -7.557214    8.648199    0.402949
     54          1           0       -6.602998    6.368378    0.405019
     55          1           0       -8.776499    3.344012   -1.929784
     56          1           0       -7.660802    1.152742   -1.967442
     57          6           0       -6.684190   -0.938764   -0.477466
     58          6           0       -7.924033   -1.137885    0.141914
     59          6           0       -8.692136   -2.255911   -0.153082
     60          6           0       -8.251760   -3.224345   -1.068286
     61          6           0       -7.002848   -3.017724   -1.673254
     62          6           0       -6.234035   -1.894297   -1.394612
     63          1           0       -5.276141   -1.759105   -1.882366
     64          1           0       -6.622935   -3.753594   -2.372990
     65          6           0       -9.074355   -4.404066   -1.438322
     66          6           0       -9.741533   -5.204812   -0.488005
     67          6           0      -10.490422   -6.320690   -0.879745
     68          6           0      -10.589114   -6.656541   -2.233187
     69          6           0       -9.938791   -5.878317   -3.191525
     70          6           0       -9.200749   -4.778553   -2.783035
     71          1           0       -8.714408   -4.166883   -3.534234
     72          1           0      -10.032331   -6.144342   -4.236502
     73          8           0      -11.299441   -7.720324   -2.704903
     74          6           0      -11.985477   -8.550716   -1.780708
     75          1           0      -12.745332   -7.991399   -1.222891
     76          1           0      -12.473802   -9.319260   -2.377619
     77          1           0      -11.294191   -9.027627   -1.076442
     78          1           0      -10.986088   -6.922385   -0.134488
     79          8           0       -9.602716   -4.840751    0.820595
     80          6           0      -10.183472   -5.647349    1.833286
     81          1           0      -11.275635   -5.680701    1.748293
     82          1           0       -9.784755   -6.667732    1.813423
     83          1           0       -9.912805   -5.176009    2.776807
     84          1           0       -9.646101   -2.386068    0.339831
     85          1           0       -8.285881   -0.405206    0.853395
     86          1           0       -4.654626   -1.802552    1.047713
     87          1           0       -2.255914   -1.998856    1.468874
     88          1           0        0.252500    0.727024   -1.089395
     89          1           0        2.635999    0.614377   -0.828430
     90         16           0        9.123789    0.305543   -0.605419
     91          6           0       10.469575   -0.212829    0.424075
     92          6           0        9.994005   -0.777274    1.599899
     93          1           0       10.653402   -1.174492    2.359953
     94          6           0       11.846087   -0.026495    0.002967
     95          6           0       12.911052   -0.188287    0.914530
     96          6           0       14.220700   -0.019765    0.513571
     97          6           0       14.553611    0.327482   -0.814183
     98          6           0       13.488229    0.495374   -1.724850
     99          6           0       12.178791    0.320031   -1.325168
    100          1           0       11.391855    0.441040   -2.060468
    101          1           0       13.683793    0.758683   -2.755101
    102          6           0       15.951965    0.484358   -1.128773
    103          6           0       16.598111    0.801101   -2.284978
    104          6           0       15.969472    1.065192   -3.530449
    105          7           0       15.544201    1.294906   -4.583914
    106          6           0       18.103574    0.878389   -2.242749
    107          8           0       18.738018    0.672509   -1.243038
    108          8           0       18.723307    1.195286   -3.399137
    109          1           0       18.087752    1.332222   -4.115879
    110          1           0       16.637229    0.323158   -0.300363
    111          1           0       15.018492   -0.148074    1.237166
    112          1           0       12.704703   -0.430789    1.949174
    113          6           0        7.637268   -2.804247    2.911604
    114          1           0        7.558605   -3.347206    1.967676
    115          1           0        8.589316   -3.066421    3.381452
    116          1           0        6.831512   -3.140233    3.569513
    117          6           0        7.660911   -0.524229    4.024198
    118          1           0        7.602613    0.555306    3.871714
    119          1           0        6.853024   -0.819794    4.698782
    120          1           0        8.611489   -0.752222    4.514437
 ---------------------------------------------------------------------
 Rotational constants (GHZ):      0.0298996      0.0053444      0.0048132
 Standard basis: 6-311G(d,p) (5D, 7F)
 There are  1706 symmetry adapted cartesian basis functions of A   symmetry.
 There are  1632 symmetry adapted basis functions of A   symmetry.
  1632 basis functions,  2778 primitive gaussians,  1706 cartesian basis functions
   268 alpha electrons      268 beta electrons
       nuclear repulsion energy     10029.7007321677 Hartrees.
 NAtoms=  120 NActive=  120 NUniq=  120 SFac= 1.00D+00 NAtFMM=   60 NAOKFM=T Big=T
 Integral buffers will be    131072 words long.
 Regular integral format.
 Two-electron integral symmetry is turned on.
 One-electron integrals computed using PRISM.
 NBasis=  1632 RedAO= T EigKep=  1.15D-04  NBF=  1632
 NBsUse=  1632 1.00D-06 EigRej= -1.00D+00 NBFU=  1632
 ExpMin= 7.71D-02 ExpMax= 9.34D+04 ExpMxC= 3.17D+03 IAcc=2 IRadAn=         4 AccDes= 0.00D+00
 Harris functional with IExCor=  402 and IRadAn=       4 diagonalized for initial guess.
 HarFok:  IExCor=  402 AccDes= 0.00D+00 IRadAn=         4 IDoV= 1 UseB2=F ITyADJ=14
 ICtDFT=  3500011 ScaDFX=  1.000000  1.000000  1.000000  1.000000
 FoFCou: FMM=F IPFlag=           0 FMFlag=      100000 FMFlg1=        2001
         NFxFlg=           0 DoJE=T BraDBF=F KetDBF=T FulRan=T
         wScrn=  0.000000 ICntrl=     500 IOpCl=  0 I1Cent=   200000004 NGrid=           0
         NMat0=    1 NMatS0=      1 NMatT0=    0 NMatD0=    1 NMtDS0=    0 NMtDT0=    0
 Petite list used in FoFCou.
 Requested convergence on RMS density matrix=1.00D-08 within 128 cycles.
 Requested convergence on MAX density matrix=1.00D-06.
 Requested convergence on             energy=1.00D-06.
 No special actions if energy rises.
 Integral accuracy reduced to 1.0D-05 until final iterations.
 Initial convergence to 1.0D-05 achieved.  Increase integral accuracy.
 SCF Done:  E(RB3LYP) =  -4217.84674664     A.U. after   18 cycles
            NFock= 18  Conv=0.39D-08     -V/T= 2.0032
 DoSCS=F DFT=T ScalE2(SS,OS)=  1.000000  1.000000
 ExpMin= 7.71D-02 ExpMax= 9.34D+04 ExpMxC= 3.17D+03 IAcc=3 IRadAn=         5 AccDes= 0.00D+00
 HarFok:  IExCor=  205 AccDes= 0.00D+00 IRadAn=         5 IDoV=-2 UseB2=F ITyADJ=14
 ICtDFT= 12500011 ScaDFX=  1.000000  1.000000  1.000000  1.000000
 Range of M.O.s used for correlation:    87  1632
 NBasis=  1632 NAE=   268 NBE=   268 NFC=    86 NFV=     0
 NROrb=   1546 NOA=   182 NOB=   182 NVA=  1364 NVB=  1364

 **** Warning!!: The largest alpha MO coefficient is  0.13055615D+02


 **** Warning!!: The smallest alpha delta epsilon is  0.69973997D-01

 Would need an additional       2664861600000 words for in-memory AO integral storage.
 Orbital symmetries:
       Occupied  (A) (A) (A) (A) (A) (A) (A) (A) (A) (A) (A) (A)
                 (A) (A) (A) (A) (A) (A) (A) (A) (A) (A) (A) (A)
                 (A) (A) (A) (A) (A) (A) (A) (A) (A) (A) (A) (A)
                 (A) (A) (A) (A) (A) (A) (A) (A) (A) (A) (A) (A)
                 (A) (A) (A) (A) (A) (A) (A) (A) (A) (A) (A) (A)
                 (A) (A) (A) (A) (A) (A) (A) (A) (A) (A) (A) (A)
                 (A) (A) (A) (A) (A) (A) (A) (A) (A) (A) (A) (A)
                 (A) (A) (A) (A) (A) (A) (A) (A) (A) (A) (A) (A)
                 (A) (A) (A) (A) (A) (A) (A) (A) (A) (A) (A) (A)
                 (A) (A) (A) (A) (A) (A) (A) (A) (A) (A) (A) (A)
                 (A) (A) (A) (A) (A) (A) (A) (A) (A) (A) (A) (A)
                 (A) (A) (A) (A) (A) (A) (A) (A) (A) (A) (A) (A)
                 (A) (A) (A) (A) (A) (A) (A) (A) (A) (A) (A) (A)
                 (A) (A) (A) (A) (A) (A) (A) (A) (A) (A) (A) (A)
                 (A) (A) (A) (A) (A) (A) (A) (A) (A) (A) (A) (A)
                 (A) (A) (A) (A) (A) (A) (A) (A) (A) (A) (A) (A)
                 (A) (A) (A) (A) (A) (A) (A) (A) (A) (A) (A) (A)
                 (A) (A) (A) (A) (A) (A) (A) (A) (A) (A) (A) (A)
                 (A) (A) (A) (A) (A) (A) (A) (A) (A) (A) (A) (A)
                 (A) (A) (A) (A) (A) (A) (A) (A) (A) (A) (A) (A)
                 (A) (A) (A) (A) (A) (A) (A) (A) (A) (A) (A) (A)
                 (A) (A) (A) (A) (A) (A) (A) (A) (A) (A) (A) (A)
                 (A) (A) (A) (A)
       Virtual   (A) (A) (A) (A) (A) (A) (A) (A) (A) (A) (A) (A)
                 (A) (A) (A) (A) (A) (A) (A) (A) (A) (A) (A) (A)
                 (A) (A) (A) (A) (A) (A) (A) (A) (A) (A) (A) (A)
                 (A) (A) (A) (A) (A) (A) (A) (A) (A) (A) (A) (A)
                 (A) (A) (A) (A) (A) (A) (A) (A) (A) (A) (A) (A)
                 (A) (A) (A) (A) (A) (A) (A) (A) (A) (A) (A) (A)
                 (A) (A) (A) (A) (A) (A) (A) (A) (A) (A) (A) (A)
                 (A) (A) (A) (A) (A) (A) (A) (A) (A) (A) (A) (A)
                 (A) (A) (A) (A) (A) (A) (A) (A) (A) (A) (A) (A)
                 (A) (A) (A) (A) (A) (A) (A) (A) (A) (A) (A) (A)
                 (A) (A) (A) (A) (A) (A) (A) (A) (A) (A) (A) (A)
                 (A) (A) (A) (A) (A) (A) (A) (A) (A) (A) (A) (A)
                 (A) (A) (A) (A) (A) (A) (A) (A) (A) (A) (A) (A)
                 (A) (A) (A) (A) (A) (A) (A) (A) (A) (A) (A) (A)
                 (A) (A) (A) (A) (A) (A) (A) (A) (A) (A) (A) (A)
                 (A) (A) (A) (A) (A) (A) (A) (A) (A) (A) (A) (A)
                 (A) (A) (A) (A) (A) (A) (A) (A) (A) (A) (A) (A)
                 (A) (A) (A) (A) (A) (A) (A) (A) (A) (A) (A) (A)
                 (A) (A) (A) (A) (A) (A) (A) (A) (A) (A) (A) (A)
                 (A) (A) (A) (A) (A) (A) (A) (A) (A) (A) (A) (A)
                 (A) (A) (A) (A) (A) (A) (A) (A) (A) (A) (A) (A)
                 (A) (A) (A) (A) (A) (A) (A) (A) (A) (A) (A) (A)
                 (A) (A) (A) (A) (A) (A) (A) (A) (A) (A) (A) (A)
                 (A) (A) (A) (A) (A) (A) (A) (A) (A) (A) (A) (A)
                 (A) (A) (A) (A) (A) (A) (A) (A) (A) (A) (A) (A)
                 (A) (A) (A) (A) (A) (A) (A) (A) (A) (A) (A) (A)
                 (A) (A) (A) (A) (A) (A) (A) (A) (A) (A) (A) (A)
                 (A) (A) (A) (A) (A) (A) (A) (A) (A) (A) (A) (A)
                 (A) (A) (A) (A) (A) (A) (A) (A) (A) (A) (A) (A)
                 (A) (A) (A) (A) (A) (A) (A) (A) (A) (A) (A) (A)
                 (A) (A) (A) (A) (A) (A) (A) (A) (A) (A) (A) (A)
                 (A) (A) (A) (A) (A) (A) (A) (A) (A) (A) (A) (A)
                 (A) (A) (A) (A) (A) (A) (A) (A) (A) (A) (A) (A)
                 (A) (A) (A) (A) (A) (A) (A) (A) (A) (A) (A) (A)
                 (A) (A) (A) (A) (A) (A) (A) (A) (A) (A) (A) (A)
                 (A) (A) (A) (A) (A) (A) (A) (A) (A) (A) (A) (A)
                 (A) (A) (A) (A) (A) (A) (A) (A) (A) (A) (A) (A)
                 (A) (A) (A) (A) (A) (A) (A) (A) (A) (A) (A) (A)
                 (A) (A) (A) (A) (A) (A) (A) (A) (A) (A) (A) (A)
                 (A) (A) (A) (A) (A) (A) (A) (A) (A) (A) (A) (A)
                 (A) (A) (A) (A) (A) (A) (A) (A) (A) (A) (A) (A)
                 (A) (A) (A) (A) (A) (A) (A) (A) (A) (A) (A) (A)
                 (A) (A) (A) (A) (A) (A) (A) (A) (A) (A) (A) (A)
                 (A) (A) (A) (A) (A) (A) (A) (A) (A) (A) (A) (A)
                 (A) (A) (A) (A) (A) (A) (A) (A) (A) (A) (A) (A)
                 (A) (A) (A) (A) (A) (A) (A) (A) (A) (A) (A) (A)
                 (A) (A) (A) (A) (A) (A) (A) (A) (A) (A) (A) (A)
                 (A) (A) (A) (A) (A) (A) (A) (A) (A) (A) (A) (A)
                 (A) (A) (A) (A) (A) (A) (A) (A) (A) (A) (A) (A)
                 (A) (A) (A) (A) (A) (A) (A) (A) (A) (A) (A) (A)
                 (A) (A) (A) (A) (A) (A) (A) (A) (A) (A) (A) (A)
                 (A) (A) (A) (A) (A) (A) (A) (A) (A) (A) (A) (A)
                 (A) (A) (A) (A) (A) (A) (A) (A) (A) (A) (A) (A)
                 (A) (A) (A) (A) (A) (A) (A) (A) (A) (A) (A) (A)
                 (A) (A) (A) (A) (A) (A) (A) (A) (A) (A) (A) (A)
                 (A) (A) (A) (A) (A) (A) (A) (A) (A) (A) (A) (A)
                 (A) (A) (A) (A) (A) (A) (A) (A) (A) (A) (A) (A)
                 (A) (A) (A) (A) (A) (A) (A) (A) (A) (A) (A) (A)
                 (A) (A) (A) (A) (A) (A) (A) (A) (A) (A) (A) (A)
                 (A) (A) (A) (A) (A) (A) (A) (A) (A) (A) (A) (A)
                 (A) (A) (A) (A) (A) (A) (A) (A) (A) (A) (A) (A)
                 (A) (A) (A) (A) (A) (A) (A) (A) (A) (A) (A) (A)
                 (A) (A) (A) (A) (A) (A) (A) (A) (A) (A) (A) (A)
                 (A) (A) (A) (A) (A) (A) (A) (A) (A) (A) (A) (A)
                 (A) (A) (A) (A) (A) (A) (A) (A) (A) (A) (A) (A)
                 (A) (A) (A) (A) (A) (A) (A) (A) (A) (A) (A) (A)
                 (A) (A) (A) (A) (A) (A) (A) (A) (A) (A) (A) (A)
                 (A) (A) (A) (A) (A) (A) (A) (A) (A) (A) (A) (A)
                 (A) (A) (A) (A) (A) (A) (A) (A) (A) (A) (A) (A)
                 (A) (A) (A) (A) (A) (A) (A) (A) (A) (A) (A) (A)
                 (A) (A) (A) (A) (A) (A) (A) (A) (A) (A) (A) (A)
                 (A) (A) (A) (A) (A) (A) (A) (A) (A) (A) (A) (A)
                 (A) (A) (A) (A) (A) (A) (A) (A) (A) (A) (A) (A)
                 (A) (A) (A) (A) (A) (A) (A) (A) (A) (A) (A) (A)
                 (A) (A) (A) (A) (A) (A) (A) (A) (A) (A) (A) (A)
                 (A) (A) (A) (A) (A) (A) (A) (A) (A) (A) (A) (A)
                 (A) (A) (A) (A) (A) (A) (A) (A) (A) (A) (A) (A)
                 (A) (A) (A) (A) (A) (A) (A) (A) (A) (A) (A) (A)
                 (A) (A) (A) (A) (A) (A) (A) (A) (A) (A) (A) (A)
                 (A) (A) (A) (A) (A) (A) (A) (A) (A) (A) (A) (A)
                 (A) (A) (A) (A) (A) (A) (A) (A) (A) (A) (A) (A)
                 (A) (A) (A) (A) (A) (A) (A) (A) (A) (A) (A) (A)
                 (A) (A) (A) (A) (A) (A) (A) (A) (A) (A) (A) (A)
                 (A) (A) (A) (A) (A) (A) (A) (A) (A) (A) (A) (A)
                 (A) (A) (A) (A) (A) (A) (A) (A) (A) (A) (A) (A)
                 (A) (A) (A) (A) (A) (A) (A) (A) (A) (A) (A) (A)
                 (A) (A) (A) (A) (A) (A) (A) (A) (A) (A) (A) (A)
                 (A) (A) (A) (A) (A) (A) (A) (A) (A) (A) (A) (A)
                 (A) (A) (A) (A) (A) (A) (A) (A) (A) (A) (A) (A)
                 (A) (A) (A) (A) (A) (A) (A) (A) (A) (A) (A) (A)
                 (A) (A) (A) (A) (A) (A) (A) (A) (A) (A) (A) (A)
                 (A) (A) (A) (A) (A) (A) (A) (A) (A) (A) (A) (A)
                 (A) (A) (A) (A) (A) (A) (A) (A) (A) (A) (A) (A)
                 (A) (A) (A) (A) (A) (A) (A) (A) (A) (A) (A) (A)
                 (A) (A) (A) (A) (A) (A) (A) (A) (A) (A) (A) (A)
                 (A) (A) (A) (A) (A) (A) (A) (A) (A) (A) (A) (A)
                 (A) (A) (A) (A) (A) (A) (A) (A) (A) (A) (A) (A)
                 (A) (A) (A) (A) (A) (A) (A) (A) (A) (A) (A) (A)
                 (A) (A) (A) (A) (A) (A) (A) (A) (A) (A) (A) (A)
                 (A) (A) (A) (A) (A) (A) (A) (A) (A) (A) (A) (A)
                 (A) (A) (A) (A) (A) (A) (A) (A) (A) (A) (A) (A)
                 (A) (A) (A) (A) (A) (A) (A) (A) (A) (A) (A) (A)
                 (A) (A) (A) (A) (A) (A) (A) (A) (A) (A) (A) (A)
                 (A) (A) (A) (A) (A) (A) (A) (A) (A) (A) (A) (A)
                 (A) (A) (A) (A) (A) (A) (A) (A) (A) (A) (A) (A)
                 (A) (A) (A) (A) (A) (A) (A) (A) (A) (A) (A) (A)
                 (A) (A) (A) (A) (A) (A) (A) (A) (A) (A) (A) (A)
                 (A) (A) (A) (A) (A) (A) (A) (A) (A) (A) (A) (A)
                 (A) (A) (A) (A) (A) (A) (A) (A) (A) (A) (A) (A)
                 (A) (A) (A) (A) (A) (A) (A) (A) (A) (A) (A) (A)
                 (A) (A) (A) (A) (A) (A) (A) (A) (A) (A) (A) (A)
                 (A) (A) (A) (A) (A) (A) (A) (A) (A) (A) (A) (A)
                 (A) (A) (A) (A) (A) (A) (A) (A) (A) (A) (A) (A)
                 (A) (A) (A) (A) (A) (A) (A) (A)
    40 initial guesses have been made.
 Convergence on wavefunction:    0.001000000000000
 Iteration     1 Dimension    40 NMult     0 NNew     40
 CISAX will form    40 AO SS matrices at one time.
 Iteration     2 Dimension    60 NMult    40 NNew     20
 New state      4 was old state      5
 New state      5 was old state      4
 Iteration     3 Dimension    80 NMult    60 NNew     20
 Iteration     4 Dimension   100 NMult    80 NNew     20
 Iteration     5 Dimension   118 NMult   100 NNew     18
 Iteration     6 Dimension   120 NMult   118 NNew      2
 ***********************************************************************
 Excited states from <AA,BB:AA,BB> singles matrix:
 ***********************************************************************
 
 Ground to excited state transition densities written to RWF  633
 Ground to excited state transition electric dipole moments (Au):
       state          X           Y           Z        Dip. S.      Osc.
         1        -4.7188      0.0288      0.0934     22.2764      0.9130
         2        -1.3073      0.1353     -0.2428      1.7863      0.0873
         3         3.8993      0.3733     -1.0005     16.3447      0.8678
         4        -1.1377     -0.1598      0.4558      1.5276      0.0914
         5         0.4677      0.3609     -0.2146      0.3950      0.0246
         6         0.8928      0.1367     -0.5155      1.0816      0.0744
         7        -0.5277      0.1622      0.0777      0.3108      0.0219
         8         2.0685     -0.0458      0.1061      4.2919      0.3081
         9        -0.5141     -0.0355     -0.0029      0.2656      0.0204
        10         1.0518      0.2915     -0.6689      1.6387      0.1290
 Ground to excited state transition velocity dipole moments (Au):
       state          X           Y           Z        Dip. S.      Osc.
         1         0.2872     -0.0023     -0.0052      0.0825      0.8950
         2         0.0986     -0.0102      0.0179      0.0101      0.0922
         3        -0.3069     -0.0295      0.0795      0.1014      0.8485
         4         0.0958      0.0137     -0.0395      0.0109      0.0812
         5        -0.0423     -0.0330      0.0202      0.0033      0.0234
         6        -0.0892     -0.0145      0.0539      0.0111      0.0715
         7         0.0552     -0.0169     -0.0078      0.0034      0.0213
         8        -0.2208      0.0052     -0.0112      0.0489      0.3028
         9         0.0602      0.0032      0.0015      0.0036      0.0211
        10        -0.1200     -0.0339      0.0793      0.0219      0.1233
 Ground to excited state transition magnetic dipole moments (Au):
       state          X           Y           Z
         1         0.0718      1.0137      0.3658
         2         0.0330      0.0115     -0.0172
         3         0.0178     -2.0342     -0.7954
         4         0.0220      1.1572      0.4691
         5        -0.0228     -0.5037      0.0697
         6         0.0057     -1.1269     -0.5227
         7        -0.0080      0.3243      0.3238
         8        -0.0673     -0.5150     -0.1701
         9         0.0123      0.2750      0.0132
        10         0.0131     -2.0304     -0.7320
 Ground to excited state transition velocity quadrupole moments (Au):
       state          XX          YY          ZZ          XY          XZ          YZ
         1         3.4506     -0.5018      0.1212      0.1980     -0.5717     -0.1021
         2        -0.4200     -0.2381      0.0456     -0.0755      0.1814     -0.0527
         3       -10.3560      0.0250     -0.0434     -0.5451      1.4375     -0.0504
         4         4.3144     -0.1066      0.1389      0.5135     -1.2609     -0.0588
         5        -2.2813     -0.0329      0.0041      0.2886      0.4960      0.0253
         6        -5.1516      0.1262     -0.0126     -0.5367      1.0669     -0.0342
         7         1.1216     -0.1202      0.0622      0.4628     -0.2541     -0.0023
         8        -1.0178      0.5070      0.0030      0.0933     -0.0600      0.0603
         9         0.7961     -0.0065      0.1181     -0.0226     -0.2606     -0.0663
        10        -8.4131     -0.1646     -0.2342     -0.7303      2.1879      0.0638
 <0|del|b> * <b|rxdel|0> + <0|del|b> * <b|delr+rdel|0>
 Rotatory Strengths (R) in cgs (10**-40 erg-esu-cm/Gauss)
       state          XX          YY          ZZ    R(velocity)    E-M Angle
         1       -37.4290    -55.0393    281.5837     63.0385       86.96
         2         0.3473     -4.3759     31.2558      9.0758       43.93
         3       -18.0420    -43.9771    -14.5985    -25.5392       90.71
         4       -22.5534     -6.9686     24.9273     -1.5316       90.26
         5       152.0472    -17.1184      8.6680     47.8656       49.41
         6       -86.2666     11.2827     -9.2128    -28.0656       95.40
         7       -53.2959      1.7491     -5.0173    -18.8547      108.51
         8        -4.9657     14.7256     82.6160     30.7919       83.32
         9         5.1969     -9.8322     14.7154      3.3601       84.34
        10        81.3229    -27.9958      2.2040     18.5104       88.33
 1/2[<0|r|b>*<b|rxdel|0> + (<0|rxdel|b>*<b|r|0>)*]
 Rotatory Strengths (R) in cgs (10**-40 erg-esu-cm/Gauss)
       state          XX          YY          ZZ     R(length)
         1       239.6604    -20.6141    -24.1667     64.9599
         2        30.4699     -1.1040     -2.9538      8.8041
         3       -48.9933    536.9309   -562.7497    -24.9374
         4        17.7177    130.7443   -151.2035     -0.9139
         5         7.5334    128.5469     10.5695     48.8833
         6        -3.6115    108.9597   -190.5510    -28.4009
         7        -2.9738    -37.1873    -17.7842    -19.3151
         8        98.3752    -16.6925     12.7583     31.4803
         9         4.4867      6.9068      0.0268      3.8068
        10        -9.7271    418.5664   -346.2614     20.8593
  1/2[<0|del|b>*<b|r|0> + (<0|r|b>*<b|del|0>)*] (Au)
       state          X           Y           Z        Dip. S.   Osc.(frdel)
         1        -1.3554     -0.0001     -0.0005      1.3560      0.9040
         2        -0.1289     -0.0014     -0.0043      0.1346      0.0897
         3        -1.1966     -0.0110     -0.0796      1.2872      0.8581
         4        -0.1090     -0.0022     -0.0180      0.1292      0.0861
         5        -0.0198     -0.0119     -0.0043      0.0360      0.0240
         6        -0.0796     -0.0020     -0.0278      0.1094      0.0729
         7        -0.0291     -0.0027     -0.0006      0.0325      0.0216
         8        -0.4567     -0.0002     -0.0012      0.4581      0.3054
         9        -0.0310     -0.0001      0.0000      0.0311      0.0207
        10        -0.1262     -0.0099     -0.0531      0.1892      0.1261

 Excitation energies and oscillator strengths:
 
 Excited State   1:      Singlet-A      1.6729 eV  741.11 nm  f=0.9130  <S**2>=0.000
     268 -> 269        0.68189
     268 -> 270        0.17890
 This state for optimization and/or second-order correction.
 Total Energy, E(TD-HF/TD-KS) =  -4217.78526698    
 Copying the excited state density for this state as the 1-particle RhoCI density.
 
 Excited State   2:      Singlet-A      1.9954 eV  621.35 nm  f=0.0873  <S**2>=0.000
     267 -> 269       -0.19811
     268 -> 269       -0.18016
     268 -> 270        0.64695
 
 Excited State   3:      Singlet-A      2.1671 eV  572.12 nm  f=0.8678  <S**2>=0.000
     267 -> 269        0.65835
     267 -> 270        0.13889
     268 -> 270        0.20896
 
 Excited State   4:      Singlet-A      2.4413 eV  507.86 nm  f=0.0914  <S**2>=0.000
     267 -> 269       -0.15049
     267 -> 270        0.66657
 
 Excited State   5:      Singlet-A      2.5423 eV  487.69 nm  f=0.0246  <S**2>=0.000
     266 -> 269        0.69237
     266 -> 270        0.11530
 
 Excited State   6:      Singlet-A      2.8093 eV  441.33 nm  f=0.0744  <S**2>=0.000
     265 -> 269        0.67637
     265 -> 270        0.13203
     268 -> 271        0.10052
 
 Excited State   7:      Singlet-A      2.8822 eV  430.17 nm  f=0.0219  <S**2>=0.000
     266 -> 269       -0.11591
     266 -> 270        0.68727
 
 Excited State   8:      Singlet-A      2.9301 eV  423.14 nm  f=0.3081  <S**2>=0.000
     264 -> 269        0.11604
     265 -> 269       -0.10079
     267 -> 271       -0.10089
     268 -> 271        0.65971
 
 Excited State   9:      Singlet-A      3.1281 eV  396.35 nm  f=0.0204  <S**2>=0.000
     264 -> 269        0.15165
     265 -> 269       -0.14039
     265 -> 270        0.65792
 
 Excited State  10:      Singlet-A      3.2142 eV  385.74 nm  f=0.1290  <S**2>=0.000
     264 -> 269        0.62114
     264 -> 270        0.10011
     265 -> 270       -0.13682
     267 -> 271       -0.21747
     268 -> 271       -0.14332
 SavETr:  write IOETrn=   770 NScale= 10 NData=  16 NLR=1 NState=   10 LETran=     190.

 **********************************************************************

            Population analysis using the SCF density.

 **********************************************************************

 Orbital symmetries:
       Occupied  (A) (A) (A) (A) (A) (A) (A) (A) (A) (A) (A) (A)
                 (A) (A) (A) (A) (A) (A) (A) (A) (A) (A) (A) (A)
                 (A) (A) (A) (A) (A) (A) (A) (A) (A) (A) (A) (A)
                 (A) (A) (A) (A) (A) (A) (A) (A) (A) (A) (A) (A)
                 (A) (A) (A) (A) (A) (A) (A) (A) (A) (A) (A) (A)
                 (A) (A) (A) (A) (A) (A) (A) (A) (A) (A) (A) (A)
                 (A) (A) (A) (A) (A) (A) (A) (A) (A) (A) (A) (A)
                 (A) (A) (A) (A) (A) (A) (A) (A) (A) (A) (A) (A)
                 (A) (A) (A) (A) (A) (A) (A) (A) (A) (A) (A) (A)
                 (A) (A) (A) (A) (A) (A) (A) (A) (A) (A) (A) (A)
                 (A) (A) (A) (A) (A) (A) (A) (A) (A) (A) (A) (A)
                 (A) (A) (A) (A) (A) (A) (A) (A) (A) (A) (A) (A)
                 (A) (A) (A) (A) (A) (A) (A) (A) (A) (A) (A) (A)
                 (A) (A) (A) (A) (A) (A) (A) (A) (A) (A) (A) (A)
                 (A) (A) (A) (A) (A) (A) (A) (A) (A) (A) (A) (A)
                 (A) (A) (A) (A) (A) (A) (A) (A) (A) (A) (A) (A)
                 (A) (A) (A) (A) (A) (A) (A) (A) (A) (A) (A) (A)
                 (A) (A) (A) (A) (A) (A) (A) (A) (A) (A) (A) (A)
                 (A) (A) (A) (A) (A) (A) (A) (A) (A) (A) (A) (A)
                 (A) (A) (A) (A) (A) (A) (A) (A) (A) (A) (A) (A)
                 (A) (A) (A) (A) (A) (A) (A) (A) (A) (A) (A) (A)
                 (A) (A) (A) (A) (A) (A) (A) (A) (A) (A) (A) (A)
                 (A) (A) (A) (A)
       Virtual   (A) (A) (A) (A) (A) (A) (A) (A) (A) (A) (A) (A)
                 (A) (A) (A) (A) (A) (A) (A) (A) (A) (A) (A) (A)
                 (A) (A) (A) (A) (A) (A) (A) (A) (A) (A) (A) (A)
                 (A) (A) (A) (A) (A) (A) (A) (A) (A) (A) (A) (A)
                 (A) (A) (A) (A) (A) (A) (A) (A) (A) (A) (A) (A)
                 (A) (A) (A) (A) (A) (A) (A) (A) (A) (A) (A) (A)
                 (A) (A) (A) (A) (A) (A) (A) (A) (A) (A) (A) (A)
                 (A) (A) (A) (A) (A) (A) (A) (A) (A) (A) (A) (A)
                 (A) (A) (A) (A) (A) (A) (A) (A) (A) (A) (A) (A)
                 (A) (A) (A) (A) (A) (A) (A) (A) (A) (A) (A) (A)
                 (A) (A) (A) (A) (A) (A) (A) (A) (A) (A) (A) (A)
                 (A) (A) (A) (A) (A) (A) (A) (A) (A) (A) (A) (A)
                 (A) (A) (A) (A) (A) (A) (A) (A) (A) (A) (A) (A)
                 (A) (A) (A) (A) (A) (A) (A) (A) (A) (A) (A) (A)
                 (A) (A) (A) (A) (A) (A) (A) (A) (A) (A) (A) (A)
                 (A) (A) (A) (A) (A) (A) (A) (A) (A) (A) (A) (A)
                 (A) (A) (A) (A) (A) (A) (A) (A) (A) (A) (A) (A)
                 (A) (A) (A) (A) (A) (A) (A) (A) (A) (A) (A) (A)
                 (A) (A) (A) (A) (A) (A) (A) (A) (A) (A) (A) (A)
                 (A) (A) (A) (A) (A) (A) (A) (A) (A) (A) (A) (A)
                 (A) (A) (A) (A) (A) (A) (A) (A) (A) (A) (A) (A)
                 (A) (A) (A) (A) (A) (A) (A) (A) (A) (A) (A) (A)
                 (A) (A) (A) (A) (A) (A) (A) (A) (A) (A) (A) (A)
                 (A) (A) (A) (A) (A) (A) (A) (A) (A) (A) (A) (A)
                 (A) (A) (A) (A) (A) (A) (A) (A) (A) (A) (A) (A)
                 (A) (A) (A) (A) (A) (A) (A) (A) (A) (A) (A) (A)
                 (A) (A) (A) (A) (A) (A) (A) (A) (A) (A) (A) (A)
                 (A) (A) (A) (A) (A) (A) (A) (A) (A) (A) (A) (A)
                 (A) (A) (A) (A) (A) (A) (A) (A) (A) (A) (A) (A)
                 (A) (A) (A) (A) (A) (A) (A) (A) (A) (A) (A) (A)
                 (A) (A) (A) (A) (A) (A) (A) (A) (A) (A) (A) (A)
                 (A) (A) (A) (A) (A) (A) (A) (A) (A) (A) (A) (A)
                 (A) (A) (A) (A) (A) (A) (A) (A) (A) (A) (A) (A)
                 (A) (A) (A) (A) (A) (A) (A) (A) (A) (A) (A) (A)
                 (A) (A) (A) (A) (A) (A) (A) (A) (A) (A) (A) (A)
                 (A) (A) (A) (A) (A) (A) (A) (A) (A) (A) (A) (A)
                 (A) (A) (A) (A) (A) (A) (A) (A) (A) (A) (A) (A)
                 (A) (A) (A) (A) (A) (A) (A) (A) (A) (A) (A) (A)
                 (A) (A) (A) (A) (A) (A) (A) (A) (A) (A) (A) (A)
                 (A) (A) (A) (A) (A) (A) (A) (A) (A) (A) (A) (A)
                 (A) (A) (A) (A) (A) (A) (A) (A) (A) (A) (A) (A)
                 (A) (A) (A) (A) (A) (A) (A) (A) (A) (A) (A) (A)
                 (A) (A) (A) (A) (A) (A) (A) (A) (A) (A) (A) (A)
                 (A) (A) (A) (A) (A) (A) (A) (A) (A) (A) (A) (A)
                 (A) (A) (A) (A) (A) (A) (A) (A) (A) (A) (A) (A)
                 (A) (A) (A) (A) (A) (A) (A) (A) (A) (A) (A) (A)
                 (A) (A) (A) (A) (A) (A) (A) (A) (A) (A) (A) (A)
                 (A) (A) (A) (A) (A) (A) (A) (A) (A) (A) (A) (A)
                 (A) (A) (A) (A) (A) (A) (A) (A) (A) (A) (A) (A)
                 (A) (A) (A) (A) (A) (A) (A) (A) (A) (A) (A) (A)
                 (A) (A) (A) (A) (A) (A) (A) (A) (A) (A) (A) (A)
                 (A) (A) (A) (A) (A) (A) (A) (A) (A) (A) (A) (A)
                 (A) (A) (A) (A) (A) (A) (A) (A) (A) (A) (A) (A)
                 (A) (A) (A) (A) (A) (A) (A) (A) (A) (A) (A) (A)
                 (A) (A) (A) (A) (A) (A) (A) (A) (A) (A) (A) (A)
                 (A) (A) (A) (A) (A) (A) (A) (A) (A) (A) (A) (A)
                 (A) (A) (A) (A) (A) (A) (A) (A) (A) (A) (A) (A)
                 (A) (A) (A) (A) (A) (A) (A) (A) (A) (A) (A) (A)
                 (A) (A) (A) (A) (A) (A) (A) (A) (A) (A) (A) (A)
                 (A) (A) (A) (A) (A) (A) (A) (A) (A) (A) (A) (A)
                 (A) (A) (A) (A) (A) (A) (A) (A) (A) (A) (A) (A)
                 (A) (A) (A) (A) (A) (A) (A) (A) (A) (A) (A) (A)
                 (A) (A) (A) (A) (A) (A) (A) (A) (A) (A) (A) (A)
                 (A) (A) (A) (A) (A) (A) (A) (A) (A) (A) (A) (A)
                 (A) (A) (A) (A) (A) (A) (A) (A) (A) (A) (A) (A)
                 (A) (A) (A) (A) (A) (A) (A) (A) (A) (A) (A) (A)
                 (A) (A) (A) (A) (A) (A) (A) (A) (A) (A) (A) (A)
                 (A) (A) (A) (A) (A) (A) (A) (A) (A) (A) (A) (A)
                 (A) (A) (A) (A) (A) (A) (A) (A) (A) (A) (A) (A)
                 (A) (A) (A) (A) (A) (A) (A) (A) (A) (A) (A) (A)
                 (A) (A) (A) (A) (A) (A) (A) (A) (A) (A) (A) (A)
                 (A) (A) (A) (A) (A) (A) (A) (A) (A) (A) (A) (A)
                 (A) (A) (A) (A) (A) (A) (A) (A) (A) (A) (A) (A)
                 (A) (A) (A) (A) (A) (A) (A) (A) (A) (A) (A) (A)
                 (A) (A) (A) (A) (A) (A) (A) (A) (A) (A) (A) (A)
                 (A) (A) (A) (A) (A) (A) (A) (A) (A) (A) (A) (A)
                 (A) (A) (A) (A) (A) (A) (A) (A) (A) (A) (A) (A)
                 (A) (A) (A) (A) (A) (A) (A) (A) (A) (A) (A) (A)
                 (A) (A) (A) (A) (A) (A) (A) (A) (A) (A) (A) (A)
                 (A) (A) (A) (A) (A) (A) (A) (A) (A) (A) (A) (A)
                 (A) (A) (A) (A) (A) (A) (A) (A) (A) (A) (A) (A)
                 (A) (A) (A) (A) (A) (A) (A) (A) (A) (A) (A) (A)
                 (A) (A) (A) (A) (A) (A) (A) (A) (A) (A) (A) (A)
                 (A) (A) (A) (A) (A) (A) (A) (A) (A) (A) (A) (A)
                 (A) (A) (A) (A) (A) (A) (A) (A) (A) (A) (A) (A)
                 (A) (A) (A) (A) (A) (A) (A) (A) (A) (A) (A) (A)
                 (A) (A) (A) (A) (A) (A) (A) (A) (A) (A) (A) (A)
                 (A) (A) (A) (A) (A) (A) (A) (A) (A) (A) (A) (A)
                 (A) (A) (A) (A) (A) (A) (A) (A) (A) (A) (A) (A)
                 (A) (A) (A) (A) (A) (A) (A) (A) (A) (A) (A) (A)
                 (A) (A) (A) (A) (A) (A) (A) (A) (A) (A) (A) (A)
                 (A) (A) (A) (A) (A) (A) (A) (A) (A) (A) (A) (A)
                 (A) (A) (A) (A) (A) (A) (A) (A) (A) (A) (A) (A)
                 (A) (A) (A) (A) (A) (A) (A) (A) (A) (A) (A) (A)
                 (A) (A) (A) (A) (A) (A) (A) (A) (A) (A) (A) (A)
                 (A) (A) (A) (A) (A) (A) (A) (A) (A) (A) (A) (A)
                 (A) (A) (A) (A) (A) (A) (A) (A) (A) (A) (A) (A)
                 (A) (A) (A) (A) (A) (A) (A) (A) (A) (A) (A) (A)
                 (A) (A) (A) (A) (A) (A) (A) (A) (A) (A) (A) (A)
                 (A) (A) (A) (A) (A) (A) (A) (A) (A) (A) (A) (A)
                 (A) (A) (A) (A) (A) (A) (A) (A) (A) (A) (A) (A)
                 (A) (A) (A) (A) (A) (A) (A) (A) (A) (A) (A) (A)
                 (A) (A) (A) (A) (A) (A) (A) (A) (A) (A) (A) (A)
                 (A) (A) (A) (A) (A) (A) (A) (A) (A) (A) (A) (A)
                 (A) (A) (A) (A) (A) (A) (A) (A) (A) (A) (A) (A)
                 (A) (A) (A) (A) (A) (A) (A) (A) (A) (A) (A) (A)
                 (A) (A) (A) (A) (A) (A) (A) (A) (A) (A) (A) (A)
                 (A) (A) (A) (A) (A) (A) (A) (A) (A) (A) (A) (A)
                 (A) (A) (A) (A) (A) (A) (A) (A) (A) (A) (A) (A)
                 (A) (A) (A) (A) (A) (A) (A) (A) (A) (A) (A) (A)
                 (A) (A) (A) (A) (A) (A) (A) (A) (A) (A) (A) (A)
                 (A) (A) (A) (A) (A) (A) (A) (A) (A) (A) (A) (A)
                 (A) (A) (A) (A) (A) (A) (A) (A) (A) (A) (A) (A)
                 (A) (A) (A) (A) (A) (A) (A) (A)
 The electronic state is 1-A.
 Alpha  occ. eigenvalues --  -88.94308 -88.89674 -88.89079 -19.16784 -19.15721
 Alpha  occ. eigenvalues --  -19.15559 -19.15482 -19.13554 -19.10628 -14.35461
 Alpha  occ. eigenvalues --  -14.35395 -14.34836 -14.32844 -10.31370 -10.24243
 Alpha  occ. eigenvalues --  -10.23970 -10.23909 -10.23838 -10.23725 -10.23403
 Alpha  occ. eigenvalues --  -10.23255 -10.23231 -10.22983 -10.22941 -10.22825
 Alpha  occ. eigenvalues --  -10.22797 -10.22741 -10.22565 -10.22542 -10.22278
 Alpha  occ. eigenvalues --  -10.22197 -10.22194 -10.21917 -10.21905 -10.21689
 Alpha  occ. eigenvalues --  -10.21499 -10.21469 -10.20982 -10.20609 -10.20290
 Alpha  occ. eigenvalues --  -10.20044 -10.20008 -10.19792 -10.19760 -10.19709
 Alpha  occ. eigenvalues --  -10.19556 -10.19271 -10.19210 -10.18762 -10.18703
 Alpha  occ. eigenvalues --  -10.18472 -10.18259 -10.18101 -10.18029 -10.17901
 Alpha  occ. eigenvalues --  -10.17884 -10.17847 -10.17802 -10.17666 -10.17649
 Alpha  occ. eigenvalues --  -10.17624 -10.17547 -10.17493 -10.17484 -10.17363
 Alpha  occ. eigenvalues --  -10.17344 -10.17310 -10.17308 -10.17283 -10.17270
 Alpha  occ. eigenvalues --  -10.17226 -10.17148 -10.16966 -10.16448  -8.02583
 Alpha  occ. eigenvalues --   -7.98277  -7.97689  -5.98997  -5.98416  -5.98187
 Alpha  occ. eigenvalues --   -5.94581  -5.94215  -5.94001  -5.93843  -5.93634
 Alpha  occ. eigenvalues --   -5.93241  -1.11054  -1.07645  -1.07387  -1.07351
 Alpha  occ. eigenvalues --   -1.05429  -1.03234  -1.02927  -0.97242  -0.93282
 Alpha  occ. eigenvalues --   -0.93151  -0.90753  -0.90032  -0.88855  -0.87767
 Alpha  occ. eigenvalues --   -0.87109  -0.86815  -0.85904  -0.85287  -0.84823
 Alpha  occ. eigenvalues --   -0.84168  -0.83557  -0.80307  -0.79551  -0.78881
 Alpha  occ. eigenvalues --   -0.78086  -0.77777  -0.77532  -0.77045  -0.76254
 Alpha  occ. eigenvalues --   -0.76008  -0.75538  -0.75284  -0.75199  -0.75012
 Alpha  occ. eigenvalues --   -0.74554  -0.74443  -0.74038  -0.72815  -0.72230
 Alpha  occ. eigenvalues --   -0.71244  -0.70556  -0.70525  -0.68991  -0.68744
 Alpha  occ. eigenvalues --   -0.67813  -0.66155  -0.64356  -0.64221  -0.63857
 Alpha  occ. eigenvalues --   -0.63308  -0.63235  -0.62719  -0.62239  -0.62021
 Alpha  occ. eigenvalues --   -0.61791  -0.61054  -0.60746  -0.60241  -0.60034
 Alpha  occ. eigenvalues --   -0.59619  -0.58656  -0.58509  -0.57799  -0.57241
 Alpha  occ. eigenvalues --   -0.55988  -0.55666  -0.55334  -0.54731  -0.54415
 Alpha  occ. eigenvalues --   -0.54046  -0.53664  -0.53549  -0.52334  -0.51775
 Alpha  occ. eigenvalues --   -0.51310  -0.50940  -0.50813  -0.50082  -0.49794
 Alpha  occ. eigenvalues --   -0.49716  -0.49120  -0.48884  -0.48646  -0.48309
 Alpha  occ. eigenvalues --   -0.48281  -0.47759  -0.47719  -0.47679  -0.47114
 Alpha  occ. eigenvalues --   -0.46669  -0.46273  -0.46119  -0.46101  -0.46057
 Alpha  occ. eigenvalues --   -0.45755  -0.45648  -0.45591  -0.45471  -0.45384
 Alpha  occ. eigenvalues --   -0.44909  -0.44866  -0.44756  -0.44449  -0.44290
 Alpha  occ. eigenvalues --   -0.44212  -0.43797  -0.43516  -0.43021  -0.42722
 Alpha  occ. eigenvalues --   -0.42613  -0.42447  -0.42372  -0.42213  -0.41989
 Alpha  occ. eigenvalues --   -0.41920  -0.41565  -0.41281  -0.40978  -0.40941
 Alpha  occ. eigenvalues --   -0.40675  -0.40386  -0.39916  -0.39554  -0.39490
 Alpha  occ. eigenvalues --   -0.39441  -0.39321  -0.38900  -0.38839  -0.38687
 Alpha  occ. eigenvalues --   -0.38679  -0.38335  -0.38258  -0.37863  -0.37819
 Alpha  occ. eigenvalues --   -0.37731  -0.37471  -0.37248  -0.36977  -0.36883
 Alpha  occ. eigenvalues --   -0.36838  -0.36732  -0.36394  -0.36161  -0.35575
 Alpha  occ. eigenvalues --   -0.35537  -0.35493  -0.35324  -0.35034  -0.34805
 Alpha  occ. eigenvalues --   -0.34742  -0.34465  -0.34280  -0.34145  -0.33822
 Alpha  occ. eigenvalues --   -0.33539  -0.33463  -0.32774  -0.32530  -0.32398
 Alpha  occ. eigenvalues --   -0.31464  -0.30948  -0.30535  -0.29707  -0.28720
 Alpha  occ. eigenvalues --   -0.28430  -0.28001  -0.27782  -0.27748  -0.27241
 Alpha  occ. eigenvalues --   -0.27025  -0.26671  -0.26494  -0.26264  -0.25599
 Alpha  occ. eigenvalues --   -0.25430  -0.25251  -0.24689  -0.23946  -0.22328
 Alpha  occ. eigenvalues --   -0.21277  -0.19945  -0.18284
 Alpha virt. eigenvalues --   -0.11286  -0.09950  -0.06467  -0.03850  -0.03559
 Alpha virt. eigenvalues --   -0.03203  -0.02565  -0.02431  -0.01218  -0.01140
 Alpha virt. eigenvalues --   -0.00915  -0.00546  -0.00369  -0.00310  -0.00295
 Alpha virt. eigenvalues --    0.00012   0.00441   0.00826   0.01459   0.01848
 Alpha virt. eigenvalues --    0.02151   0.02776   0.02796   0.03027   0.03376
 Alpha virt. eigenvalues --    0.03763   0.04043   0.04236   0.04456   0.04795
 Alpha virt. eigenvalues --    0.04945   0.05084   0.05517   0.05687   0.06001
 Alpha virt. eigenvalues --    0.06173   0.06469   0.06733   0.06986   0.07170
 Alpha virt. eigenvalues --    0.07312   0.07776   0.08200   0.08303   0.08394
 Alpha virt. eigenvalues --    0.08510   0.08613   0.08648   0.08934   0.09108
 Alpha virt. eigenvalues --    0.09345   0.09496   0.09743   0.10032   0.10380
 Alpha virt. eigenvalues --    0.10529   0.10932   0.11006   0.11173   0.11314
 Alpha virt. eigenvalues --    0.11457   0.11655   0.12150   0.12251   0.12368
 Alpha virt. eigenvalues --    0.12573   0.12604   0.12689   0.12795   0.12999
 Alpha virt. eigenvalues --    0.13163   0.13293   0.13438   0.13764   0.14106
 Alpha virt. eigenvalues --    0.14340   0.14494   0.14704   0.14948   0.15243
 Alpha virt. eigenvalues --    0.15411   0.15517   0.15648   0.15767   0.16198
 Alpha virt. eigenvalues --    0.16310   0.16529   0.16751   0.16776   0.17437
 Alpha virt. eigenvalues --    0.17547   0.17636   0.18035   0.18461   0.18581
 Alpha virt. eigenvalues --    0.19153   0.19771   0.20478   0.20796   0.20893
 Alpha virt. eigenvalues --    0.20984   0.21686   0.22164   0.22675   0.22834
 Alpha virt. eigenvalues --    0.22905   0.23080   0.23265   0.23570   0.23726
 Alpha virt. eigenvalues --    0.24422   0.24484   0.24793   0.24952   0.25380
 Alpha virt. eigenvalues --    0.25616   0.25970   0.26137   0.26453   0.26631
 Alpha virt. eigenvalues --    0.26771   0.27440   0.27597   0.27857   0.28195
 Alpha virt. eigenvalues --    0.28244   0.28543   0.28659   0.28764   0.28939
 Alpha virt. eigenvalues --    0.29125   0.29275   0.29618   0.29966   0.30159
 Alpha virt. eigenvalues --    0.30238   0.30365   0.30563   0.30733   0.30978
 Alpha virt. eigenvalues --    0.31072   0.31249   0.31846   0.32054   0.32331
 Alpha virt. eigenvalues --    0.32475   0.32886   0.32991   0.33233   0.33683
 Alpha virt. eigenvalues --    0.33880   0.34200   0.34325   0.34406   0.34723
 Alpha virt. eigenvalues --    0.34950   0.35509   0.35664   0.35830   0.36178
 Alpha virt. eigenvalues --    0.36217   0.36313   0.36419   0.36524   0.36580
 Alpha virt. eigenvalues --    0.36788   0.36944   0.37133   0.37229   0.37491
 Alpha virt. eigenvalues --    0.37538   0.37798   0.38048   0.38108   0.38172
 Alpha virt. eigenvalues --    0.38403   0.38832   0.38980   0.39078   0.39142
 Alpha virt. eigenvalues --    0.39350   0.39406   0.39660   0.39899   0.39995
 Alpha virt. eigenvalues --    0.40070   0.40170   0.40364   0.40684   0.40703
 Alpha virt. eigenvalues --    0.40980   0.41126   0.41141   0.41306   0.41479
 Alpha virt. eigenvalues --    0.41713   0.41804   0.42097   0.42118   0.42256
 Alpha virt. eigenvalues --    0.42306   0.42462   0.42611   0.42643   0.42886
 Alpha virt. eigenvalues --    0.42949   0.43167   0.43395   0.43423   0.43736
 Alpha virt. eigenvalues --    0.43813   0.43906   0.44087   0.44092   0.44213
 Alpha virt. eigenvalues --    0.44376   0.44524   0.44800   0.44836   0.45091
 Alpha virt. eigenvalues --    0.45421   0.45579   0.45865   0.46204   0.46332
 Alpha virt. eigenvalues --    0.46493   0.46878   0.46882   0.47118   0.47197
 Alpha virt. eigenvalues --    0.47319   0.47575   0.47927   0.48043   0.48210
 Alpha virt. eigenvalues --    0.48281   0.48530   0.48729   0.48878   0.49032
 Alpha virt. eigenvalues --    0.49313   0.49473   0.49734   0.49813   0.49929
 Alpha virt. eigenvalues --    0.50365   0.50551   0.50713   0.51108   0.51386
 Alpha virt. eigenvalues --    0.51568   0.51901   0.52189   0.52347   0.52481
 Alpha virt. eigenvalues --    0.52622   0.52693   0.52855   0.53038   0.53436
 Alpha virt. eigenvalues --    0.53613   0.53799   0.54159   0.54276   0.54670
 Alpha virt. eigenvalues --    0.54843   0.55093   0.55170   0.55280   0.55294
 Alpha virt. eigenvalues --    0.55425   0.55795   0.55822   0.55943   0.56191
 Alpha virt. eigenvalues --    0.56378   0.56581   0.56776   0.56865   0.56987
 Alpha virt. eigenvalues --    0.57273   0.57317   0.57514   0.57621   0.57682
 Alpha virt. eigenvalues --    0.57860   0.58044   0.58343   0.58643   0.58748
 Alpha virt. eigenvalues --    0.58882   0.58915   0.58997   0.59286   0.59426
 Alpha virt. eigenvalues --    0.59513   0.59780   0.59941   0.60060   0.60235
 Alpha virt. eigenvalues --    0.60476   0.60654   0.60860   0.60913   0.61077
 Alpha virt. eigenvalues --    0.61292   0.61388   0.61603   0.61767   0.61893
 Alpha virt. eigenvalues --    0.61945   0.62230   0.62272   0.62552   0.62596
 Alpha virt. eigenvalues --    0.62762   0.62835   0.63038   0.63275   0.63373
 Alpha virt. eigenvalues --    0.63458   0.63658   0.63808   0.63911   0.64045
 Alpha virt. eigenvalues --    0.64178   0.64295   0.64648   0.64929   0.65142
 Alpha virt. eigenvalues --    0.65323   0.65539   0.65877   0.65952   0.66310
 Alpha virt. eigenvalues --    0.66489   0.66551   0.67021   0.67214   0.67550
 Alpha virt. eigenvalues --    0.68339   0.68414   0.68457   0.69009   0.69150
 Alpha virt. eigenvalues --    0.69190   0.69420   0.69640   0.69998   0.70446
 Alpha virt. eigenvalues --    0.70647   0.70926   0.71207   0.72128   0.72187
 Alpha virt. eigenvalues --    0.72241   0.72356   0.72743   0.73066   0.73293
 Alpha virt. eigenvalues --    0.73573   0.73783   0.74020   0.74317   0.74400
 Alpha virt. eigenvalues --    0.74568   0.74807   0.75146   0.75378   0.75626
 Alpha virt. eigenvalues --    0.75947   0.76160   0.76395   0.76729   0.77207
 Alpha virt. eigenvalues --    0.77473   0.77508   0.77908   0.78195   0.78605
 Alpha virt. eigenvalues --    0.78782   0.78951   0.79328   0.79433   0.79742
 Alpha virt. eigenvalues --    0.79995   0.80062   0.80402   0.80674   0.81050
 Alpha virt. eigenvalues --    0.81121   0.81546   0.81621   0.81912   0.82016
 Alpha virt. eigenvalues --    0.82219   0.82576   0.82646   0.82733   0.82905
 Alpha virt. eigenvalues --    0.82974   0.83429   0.83823   0.84087   0.84246
 Alpha virt. eigenvalues --    0.84627   0.84767   0.84966   0.85417   0.85790
 Alpha virt. eigenvalues --    0.86122   0.86322   0.86452   0.86547   0.86711
 Alpha virt. eigenvalues --    0.86951   0.87039   0.87724   0.87815   0.87921
 Alpha virt. eigenvalues --    0.88139   0.88311   0.88496   0.88671   0.88830
 Alpha virt. eigenvalues --    0.89109   0.89401   0.89664   0.89798   0.90130
 Alpha virt. eigenvalues --    0.90661   0.91066   0.91270   0.91622   0.91871
 Alpha virt. eigenvalues --    0.92235   0.92489   0.92520   0.92704   0.93017
 Alpha virt. eigenvalues --    0.93262   0.93888   0.94032   0.94220   0.94618
 Alpha virt. eigenvalues --    0.95096   0.95456   0.95786   0.96009   0.96097
 Alpha virt. eigenvalues --    0.96471   0.96489   0.96889   0.97072   0.97212
 Alpha virt. eigenvalues --    0.97358   0.97997   0.98198   0.98459   0.98813
 Alpha virt. eigenvalues --    0.98975   0.99427   0.99569   0.99857   1.00276
 Alpha virt. eigenvalues --    1.00525   1.00746   1.00888   1.01241   1.01421
 Alpha virt. eigenvalues --    1.01776   1.02086   1.02295   1.02439   1.02554
 Alpha virt. eigenvalues --    1.02898   1.03322   1.03554   1.03647   1.03938
 Alpha virt. eigenvalues --    1.04192   1.04370   1.04669   1.04748   1.05073
 Alpha virt. eigenvalues --    1.05420   1.05999   1.06191   1.06319   1.06886
 Alpha virt. eigenvalues --    1.06948   1.07479   1.07649   1.08116   1.08306
 Alpha virt. eigenvalues --    1.08645   1.09020   1.09868   1.09957   1.10052
 Alpha virt. eigenvalues --    1.10268   1.10394   1.10612   1.10889   1.11462
 Alpha virt. eigenvalues --    1.11697   1.12134   1.12340   1.12821   1.13055
 Alpha virt. eigenvalues --    1.13264   1.13648   1.13857   1.13991   1.14092
 Alpha virt. eigenvalues --    1.14435   1.14617   1.15251   1.15420   1.15572
 Alpha virt. eigenvalues --    1.16298   1.16747   1.16822   1.17536   1.17683
 Alpha virt. eigenvalues --    1.18036   1.18377   1.18668   1.18958   1.19627
 Alpha virt. eigenvalues --    1.20155   1.21092   1.21444   1.21564   1.22251
 Alpha virt. eigenvalues --    1.22374   1.23520   1.23749   1.23832   1.24632
 Alpha virt. eigenvalues --    1.24866   1.25888   1.26104   1.26743   1.26912
 Alpha virt. eigenvalues --    1.27446   1.27941   1.28518   1.29075   1.29232
 Alpha virt. eigenvalues --    1.29419   1.29966   1.30134   1.30213   1.31345
 Alpha virt. eigenvalues --    1.31569   1.32242   1.32774   1.33621   1.34775
 Alpha virt. eigenvalues --    1.35726   1.35746   1.35764   1.36571   1.36678
 Alpha virt. eigenvalues --    1.37128   1.37383   1.37648   1.38606   1.38772
 Alpha virt. eigenvalues --    1.39103   1.39488   1.39689   1.39810   1.39995
 Alpha virt. eigenvalues --    1.40452   1.40762   1.41103   1.41584   1.41916
 Alpha virt. eigenvalues --    1.42162   1.42209   1.42349   1.42463   1.42803
 Alpha virt. eigenvalues --    1.42939   1.43166   1.43415   1.43724   1.44051
 Alpha virt. eigenvalues --    1.44195   1.44610   1.44814   1.44895   1.44982
 Alpha virt. eigenvalues --    1.45432   1.45528   1.45660   1.45761   1.45780
 Alpha virt. eigenvalues --    1.46116   1.46264   1.46495   1.46603   1.46732
 Alpha virt. eigenvalues --    1.47307   1.47415   1.47795   1.47906   1.48006
 Alpha virt. eigenvalues --    1.48256   1.48650   1.48784   1.48852   1.49138
 Alpha virt. eigenvalues --    1.49241   1.49532   1.49846   1.49988   1.50320
 Alpha virt. eigenvalues --    1.50645   1.51207   1.51628   1.51717   1.51812
 Alpha virt. eigenvalues --    1.52041   1.52570   1.52939   1.53199   1.53676
 Alpha virt. eigenvalues --    1.53946   1.54013   1.54221   1.54505   1.54508
 Alpha virt. eigenvalues --    1.54579   1.54923   1.55042   1.55327   1.55811
 Alpha virt. eigenvalues --    1.56027   1.56099   1.56561   1.56850   1.57068
 Alpha virt. eigenvalues --    1.57387   1.57488   1.57595   1.57615   1.58040
 Alpha virt. eigenvalues --    1.58161   1.58262   1.58721   1.58785   1.59000
 Alpha virt. eigenvalues --    1.59240   1.59464   1.59733   1.59812   1.60029
 Alpha virt. eigenvalues --    1.60485   1.60776   1.61340   1.61497   1.61881
 Alpha virt. eigenvalues --    1.62152   1.62626   1.63126   1.63389   1.63922
 Alpha virt. eigenvalues --    1.64197   1.64389   1.64792   1.64880   1.65115
 Alpha virt. eigenvalues --    1.65163   1.65382   1.65458   1.65833   1.65970
 Alpha virt. eigenvalues --    1.66241   1.66278   1.66658   1.66704   1.67008
 Alpha virt. eigenvalues --    1.67069   1.67096   1.67207   1.67470   1.67850
 Alpha virt. eigenvalues --    1.68532   1.68774   1.69117   1.69547   1.69687
 Alpha virt. eigenvalues --    1.69844   1.70360   1.70642   1.71000   1.71293
 Alpha virt. eigenvalues --    1.71625   1.71988   1.72270   1.72619   1.72884
 Alpha virt. eigenvalues --    1.73324   1.73552   1.73840   1.74053   1.74146
 Alpha virt. eigenvalues --    1.74352   1.74399   1.74812   1.74869   1.75008
 Alpha virt. eigenvalues --    1.75406   1.75702   1.75767   1.76035   1.76193
 Alpha virt. eigenvalues --    1.76273   1.76577   1.76868   1.76999   1.77757
 Alpha virt. eigenvalues --    1.77885   1.78271   1.78416   1.78677   1.78803
 Alpha virt. eigenvalues --    1.79052   1.79226   1.79706   1.79730   1.80232
 Alpha virt. eigenvalues --    1.80413   1.80881   1.81222   1.81643   1.82122
 Alpha virt. eigenvalues --    1.82428   1.83764   1.84792   1.85282   1.85509
 Alpha virt. eigenvalues --    1.85735   1.86398   1.86590   1.86959   1.87409
 Alpha virt. eigenvalues --    1.87568   1.87840   1.88178   1.88394   1.88458
 Alpha virt. eigenvalues --    1.89206   1.89422   1.89512   1.89820   1.90171
 Alpha virt. eigenvalues --    1.90270   1.90411   1.90724   1.90785   1.90960
 Alpha virt. eigenvalues --    1.91194   1.91289   1.91547   1.92018   1.92064
 Alpha virt. eigenvalues --    1.92156   1.92409   1.92696   1.92790   1.93358
 Alpha virt. eigenvalues --    1.93840   1.93957   1.94428   1.94583   1.94712
 Alpha virt. eigenvalues --    1.94886   1.95324   1.95799   1.96202   1.96652
 Alpha virt. eigenvalues --    1.96782   1.96858   1.97066   1.97287   1.97720
 Alpha virt. eigenvalues --    1.97885   1.98013   1.98246   1.98482   1.98785
 Alpha virt. eigenvalues --    1.99067   1.99488   1.99508   1.99741   2.00103
 Alpha virt. eigenvalues --    2.00315   2.00378   2.01365   2.01595   2.01796
 Alpha virt. eigenvalues --    2.02175   2.02655   2.03034   2.03320   2.03414
 Alpha virt. eigenvalues --    2.03725   2.03969   2.04228   2.04598   2.04716
 Alpha virt. eigenvalues --    2.05019   2.05719   2.06140   2.06301   2.06449
 Alpha virt. eigenvalues --    2.06747   2.06972   2.07115   2.07687   2.07959
 Alpha virt. eigenvalues --    2.08134   2.08575   2.08681   2.08883   2.09337
 Alpha virt. eigenvalues --    2.09488   2.09562   2.10249   2.10368   2.10651
 Alpha virt. eigenvalues --    2.11035   2.11146   2.11249   2.11418   2.12057
 Alpha virt. eigenvalues --    2.12425   2.12581   2.12683   2.13364   2.13869
 Alpha virt. eigenvalues --    2.14011   2.14485   2.14769   2.15968   2.16380
 Alpha virt. eigenvalues --    2.16801   2.17764   2.18318   2.18735   2.18988
 Alpha virt. eigenvalues --    2.19188   2.21094   2.21502   2.21652   2.22589
 Alpha virt. eigenvalues --    2.23290   2.23440   2.24081   2.24475   2.25518
 Alpha virt. eigenvalues --    2.26376   2.27559   2.27987   2.28547   2.28854
 Alpha virt. eigenvalues --    2.29073   2.29908   2.30446   2.30613   2.30698
 Alpha virt. eigenvalues --    2.30760   2.31103   2.31395   2.31664   2.31849
 Alpha virt. eigenvalues --    2.32528   2.32693   2.33046   2.33342   2.33880
 Alpha virt. eigenvalues --    2.34265   2.34465   2.34824   2.35120   2.35489
 Alpha virt. eigenvalues --    2.35760   2.36007   2.36615   2.37578   2.37910
 Alpha virt. eigenvalues --    2.38002   2.38683   2.38761   2.39212   2.39436
 Alpha virt. eigenvalues --    2.39540   2.39785   2.39908   2.40330   2.40429
 Alpha virt. eigenvalues --    2.40809   2.41157   2.41560   2.41976   2.42072
 Alpha virt. eigenvalues --    2.42691   2.42943   2.43360   2.43928   2.43980
 Alpha virt. eigenvalues --    2.44555   2.44802   2.45624   2.45771   2.45931
 Alpha virt. eigenvalues --    2.46500   2.46928   2.47884   2.48070   2.48676
 Alpha virt. eigenvalues --    2.48848   2.48939   2.49437   2.50254   2.50311
 Alpha virt. eigenvalues --    2.50487   2.50574   2.50875   2.51033   2.51346
 Alpha virt. eigenvalues --    2.51920   2.52520   2.52780   2.52852   2.53590
 Alpha virt. eigenvalues --    2.53829   2.54747   2.55128   2.55467   2.56134
 Alpha virt. eigenvalues --    2.56260   2.56668   2.57026   2.57227   2.57425
 Alpha virt. eigenvalues --    2.57790   2.58009   2.58531   2.58653   2.59046
 Alpha virt. eigenvalues --    2.59744   2.60139   2.60156   2.60610   2.60898
 Alpha virt. eigenvalues --    2.60910   2.61280   2.61488   2.61777   2.61799
 Alpha virt. eigenvalues --    2.62325   2.62671   2.63077   2.63268   2.63304
 Alpha virt. eigenvalues --    2.63702   2.63962   2.64069   2.64462   2.64585
 Alpha virt. eigenvalues --    2.64751   2.65158   2.65586   2.65998   2.66124
 Alpha virt. eigenvalues --    2.66358   2.66602   2.66662   2.66947   2.67282
 Alpha virt. eigenvalues --    2.67342   2.67774   2.67829   2.67941   2.68591
 Alpha virt. eigenvalues --    2.68742   2.68833   2.69115   2.69207   2.69537
 Alpha virt. eigenvalues --    2.69750   2.70152   2.70708   2.70938   2.71407
 Alpha virt. eigenvalues --    2.71679   2.71839   2.72220   2.72632   2.73089
 Alpha virt. eigenvalues --    2.73256   2.73564   2.73610   2.73835   2.74028
 Alpha virt. eigenvalues --    2.74882   2.75251   2.75399   2.75748   2.76077
 Alpha virt. eigenvalues --    2.76375   2.76852   2.77242   2.77456   2.78118
 Alpha virt. eigenvalues --    2.78726   2.79162   2.79614   2.79868   2.80272
 Alpha virt. eigenvalues --    2.80858   2.81258   2.81541   2.81950   2.82260
 Alpha virt. eigenvalues --    2.82659   2.82836   2.83277   2.83804   2.83919
 Alpha virt. eigenvalues --    2.84290   2.84748   2.84793   2.85560   2.85713
 Alpha virt. eigenvalues --    2.86068   2.86500   2.87059   2.87240   2.87425
 Alpha virt. eigenvalues --    2.88319   2.88345   2.89191   2.89801   2.90057
 Alpha virt. eigenvalues --    2.90300   2.90525   2.91150   2.91216   2.91679
 Alpha virt. eigenvalues --    2.92045   2.92211   2.92461   2.92820   2.93343
 Alpha virt. eigenvalues --    2.93614   2.93915   2.94151   2.94528   2.94725
 Alpha virt. eigenvalues --    2.95528   2.96355   2.96847   2.97474   2.97649
 Alpha virt. eigenvalues --    2.98120   2.98560   2.98766   2.99104   2.99756
 Alpha virt. eigenvalues --    3.01652   3.02123   3.02278   3.02562   3.03408
 Alpha virt. eigenvalues --    3.03607   3.03824   3.04345   3.04475   3.04609
 Alpha virt. eigenvalues --    3.04910   3.05274   3.05933   3.06349   3.06741
 Alpha virt. eigenvalues --    3.07020   3.07876   3.08475   3.09436   3.10206
 Alpha virt. eigenvalues --    3.10557   3.10787   3.11605   3.12219   3.12655
 Alpha virt. eigenvalues --    3.13065   3.13939   3.15574   3.16849   3.16946
 Alpha virt. eigenvalues --    3.17521   3.17659   3.17759   3.18617   3.18899
 Alpha virt. eigenvalues --    3.19344   3.20092   3.20160   3.20767   3.20900
 Alpha virt. eigenvalues --    3.21413   3.22234   3.22695   3.23608   3.23680
 Alpha virt. eigenvalues --    3.24093   3.24855   3.25241   3.26173   3.27035
 Alpha virt. eigenvalues --    3.28419   3.29841   3.30953   3.31100   3.31169
 Alpha virt. eigenvalues --    3.33010   3.33857   3.33870   3.34593   3.35155
 Alpha virt. eigenvalues --    3.35472   3.35822   3.36212   3.36343   3.36921
 Alpha virt. eigenvalues --    3.37801   3.38120   3.38421   3.39269   3.40835
 Alpha virt. eigenvalues --    3.41053   3.41435   3.42405   3.43813   3.44336
 Alpha virt. eigenvalues --    3.44886   3.47068   3.47131   3.47745   3.49501
 Alpha virt. eigenvalues --    3.49683   3.50642   3.50897   3.52181   3.52653
 Alpha virt. eigenvalues --    3.52782   3.53816   3.54161   3.54409   3.55174
 Alpha virt. eigenvalues --    3.55274   3.55810   3.56740   3.57306   3.58409
 Alpha virt. eigenvalues --    3.58552   3.59327   3.59833   3.61325   3.61509
 Alpha virt. eigenvalues --    3.62890   3.63706   3.65920   3.66644   3.71263
 Alpha virt. eigenvalues --    3.72918   3.74401   3.74615   3.74622   3.74718
 Alpha virt. eigenvalues --    3.75130   3.75525   3.75711   3.77017   3.77157
 Alpha virt. eigenvalues --    3.78356   3.78619   3.79223   3.79375   3.80378
 Alpha virt. eigenvalues --    3.80671   3.80765   3.81660   3.82467   3.83362
 Alpha virt. eigenvalues --    3.86118   3.86444   3.86663   3.87041   3.92455
 Alpha virt. eigenvalues --    3.93703   3.97026   3.97688   3.98133   3.98676
 Alpha virt. eigenvalues --    3.98790   3.99473   4.02140   4.02722   4.03627
 Alpha virt. eigenvalues --    4.04439   4.05693   4.06352   4.07615   4.09002
 Alpha virt. eigenvalues --    4.09983   4.10334   4.11220   4.11663   4.11910
 Alpha virt. eigenvalues --    4.12449   4.12723   4.13394   4.14161   4.14930
 Alpha virt. eigenvalues --    4.15936   4.16887   4.17506   4.17707   4.18324
 Alpha virt. eigenvalues --    4.18836   4.19484   4.20338   4.23743   4.27981
 Alpha virt. eigenvalues --    4.30037   4.39844   4.42244   4.47049   4.47220
 Alpha virt. eigenvalues --    4.52749   4.55291   4.60429   4.63905   4.71394
 Alpha virt. eigenvalues --    4.73929   4.78175   4.80453   4.82103   4.82536
 Alpha virt. eigenvalues --    4.83003   4.84465   4.85916   4.86099   4.89087
 Alpha virt. eigenvalues --    4.89096   4.90298   4.92904   5.03086   5.04736
 Alpha virt. eigenvalues --    5.09655   5.13445   5.26036   5.26814   5.27639
 Alpha virt. eigenvalues --    5.29173   5.31828   5.55767   5.71715   5.76151
 Alpha virt. eigenvalues --    5.76960   5.78032   5.80809   7.78751   7.80213
 Alpha virt. eigenvalues --    7.83319  17.13114  17.17776  17.20509  17.29752
 Alpha virt. eigenvalues --   17.32163  17.42838  17.50246  17.51976  17.55656
 Alpha virt. eigenvalues --   23.38491  23.44145  23.46761  23.47906  23.52725
 Alpha virt. eigenvalues --   23.60260  23.61881  23.62690  23.65486  23.70741
 Alpha virt. eigenvalues --   23.76529  23.76905  23.80958  23.84220  23.85040
 Alpha virt. eigenvalues --   23.85401  23.85648  23.85999  23.86393  23.87413
 Alpha virt. eigenvalues --   23.87610  23.87964  23.88002  23.90580  23.90808
 Alpha virt. eigenvalues --   23.90962  23.91619  23.91746  23.92217  23.92620
 Alpha virt. eigenvalues --   23.92935  23.93277  23.93460  23.93829  23.98296
 Alpha virt. eigenvalues --   24.00072  24.01380  24.01768  24.02099  24.02673
 Alpha virt. eigenvalues --   24.04421  24.05055  24.05736  24.06271  24.08487
 Alpha virt. eigenvalues --   24.09484  24.10301  24.11323  24.11558  24.12163
 Alpha virt. eigenvalues --   24.12419  24.12537  24.12755  24.13490  24.16247
 Alpha virt. eigenvalues --   24.16854  24.17051  24.18313  24.18725  24.19110
 Alpha virt. eigenvalues --   24.42139  35.47605  35.60572  35.65086  35.81325
 Alpha virt. eigenvalues --   49.85004  49.91047  49.91438  49.92647  49.93860
 Alpha virt. eigenvalues --   50.01626 188.90178 188.90975 188.94549
          Condensed to atoms (all electrons):
 Mulliken charges:
               1
     1  C   -0.275429
     2  C    0.022184
     3  C   -0.185028
     4  C   -0.178229
     5  S    0.301797
     6  C   -0.280680
     7  C    0.034818
     8  C    0.021827
     9  H    0.121169
    10  C    0.096925
    11  C   -0.103761
    12  C   -0.075703
    13  C    0.006331
    14  C    0.105754
    15  N   -0.478774
    16  S    0.551866
    17  N   -0.514784
    18  C    0.135666
    19  C   -0.027448
    20  C   -0.029941
    21  C   -0.106945
    22  C    0.163415
    23  C   -0.104412
    24  C   -0.070260
    25  H    0.093485
    26  H    0.115079
    27  N   -0.503793
    28  C    0.102400
    29  C   -0.080273
    30  C   -0.045576
    31  C   -0.099287
    32  C   -0.073797
    33  C   -0.076101
    34  H    0.107758
    35  H    0.094495
    36  C   -0.024071
    37  C   -0.059592
    38  C   -0.088220
    39  C    0.186345
    40  C   -0.097514
    41  C    0.112236
    42  O   -0.387075
    43  C   -0.108120
    44  H    0.095484
    45  H    0.116393
    46  H    0.115828
    47  H    0.102183
    48  O   -0.347785
    49  C   -0.132889
    50  H    0.130368
    51  H    0.114313
    52  H    0.110172
    53  H    0.100097
    54  H    0.096286
    55  H    0.106577
    56  H    0.107855
    57  C    0.097327
    58  C   -0.082990
    59  C   -0.027596
    60  C   -0.021751
    61  C   -0.069629
    62  C   -0.077270
    63  H    0.105362
    64  H    0.095687
    65  C   -0.098364
    66  C    0.196132
    67  C   -0.179856
    68  C    0.178085
    69  C   -0.091015
    70  C   -0.064565
    71  H    0.093527
    72  H    0.097396
    73  O   -0.348315
    74  C   -0.133233
    75  H    0.109158
    76  H    0.131517
    77  H    0.109264
    78  H    0.115844
    79  O   -0.359078
    80  C   -0.132532
    81  H    0.108506
    82  H    0.111128
    83  H    0.132152
    84  H    0.090964
    85  H    0.102182
    86  H    0.115728
    87  H    0.104843
    88  H    0.099026
    89  H    0.102635
    90  S    0.317142
    91  C   -0.297550
    92  C    0.027353
    93  H    0.093922
    94  C    0.035800
    95  C   -0.039583
    96  C   -0.058894
    97  C   -0.087439
    98  C   -0.046437
    99  C   -0.098287
   100  H    0.109245
   101  H    0.127668
   102  C    0.052771
   103  C   -0.205303
   104  C   -0.003542
   105  N   -0.237288
   106  C    0.462503
   107  O   -0.318118
   108  O   -0.299978
   109  H    0.256016
   110  H    0.129687
   111  H    0.100160
   112  H    0.094967
   113  C   -0.211637
   114  H    0.121678
   115  H    0.107061
   116  H    0.113939
   117  C   -0.211575
   118  H    0.121471
   119  H    0.113939
   120  H    0.106426
 Sum of Mulliken charges =   0.00000
 Mulliken charges with hydrogens summed into heavy atoms:
               1
     1  C   -0.275429
     2  C    0.022184
     3  C   -0.185028
     4  C   -0.178229
     5  S    0.301797
     6  C   -0.280680
     7  C    0.155987
     8  C    0.021827
    10  C    0.096925
    11  C   -0.001126
    12  C    0.023323
    13  C    0.006331
    14  C    0.105754
    15  N   -0.478774
    16  S    0.551866
    17  N   -0.514784
    18  C    0.135666
    19  C   -0.027448
    20  C    0.074901
    21  C    0.008783
    22  C    0.163415
    23  C    0.010667
    24  C    0.023225
    27  N   -0.503793
    28  C    0.102400
    29  C    0.027583
    30  C    0.061001
    31  C   -0.099287
    32  C    0.020697
    33  C    0.031656
    36  C   -0.024071
    37  C    0.036694
    38  C    0.011877
    39  C    0.186345
    40  C    0.004669
    41  C    0.112236
    42  O   -0.387075
    43  C    0.219585
    48  O   -0.347785
    49  C    0.221964
    57  C    0.097327
    58  C    0.019192
    59  C    0.063367
    60  C   -0.021751
    61  C    0.026059
    62  C    0.028092
    65  C   -0.098364
    66  C    0.196132
    67  C   -0.064012
    68  C    0.178085
    69  C    0.006381
    70  C    0.028962
    73  O   -0.348315
    74  C    0.216706
    79  O   -0.359078
    80  C    0.219253
    90  S    0.317142
    91  C   -0.297550
    92  C    0.121275
    94  C    0.035800
    95  C    0.055385
    96  C    0.041266
    97  C   -0.087439
    98  C    0.081231
    99  C    0.010957
   102  C    0.182459
   103  C   -0.205303
   104  C   -0.003542
   105  N   -0.237288
   106  C    0.462503
   107  O   -0.318118
   108  O   -0.043962
   113  C    0.131041
   117  C    0.130261
 Electronic spatial extent (au):  <R**2>=         204333.5002
 Charge=              0.0000 electrons
 Dipole moment (field-independent basis, Debye):
    X=            -13.1615    Y=             -3.2377    Z=              5.9731  Tot=             14.8116
 Quadrupole moment (field-independent basis, Debye-Ang):
   XX=           -557.4071   YY=           -408.5855   ZZ=           -446.8435
   XY=             -3.9532   XZ=             29.5690   YZ=            -14.2823
 Traceless Quadrupole moment (field-independent basis, Debye-Ang):
   XX=            -86.4617   YY=             62.3599   ZZ=             24.1019
   XY=             -3.9532   XZ=             29.5690   YZ=            -14.2823
 Octapole moment (field-independent basis, Debye-Ang**2):
  XXX=          -5907.7143  YYY=           -135.4276  ZZZ=             97.5060  XYY=           -691.2239
  XXY=           -486.4194  XXZ=           1062.7091  XZZ=            -77.9898  YZZ=            -52.2163
  YYZ=             71.4088  XYZ=            105.5433
 Hexadecapole moment (field-independent basis, Debye-Ang**3):
 XXXX=        -313063.1392 YYYY=         -31740.0693 ZZZZ=          -9010.9357 XXXY=          -4375.9517
 XXXZ=           9097.3947 YYYX=           1215.7954 YYYZ=           -639.9309 ZZZX=            844.2938
 ZZZY=            -92.3601 XXYY=         -36769.4427 XXZZ=         -42156.0029 YYZZ=          -7576.4000
 XXYZ=          -1102.0215 YYXZ=           -416.3254 ZZXY=           -237.1618
 N-N= 1.002970073217D+04 E-N=-2.993608668700D+04  KE= 4.204216725680D+03
 1\1\GINC-N054\SP\RB3LYP TD-FC\6-311G(d,p)\C61H46N4O6S3\R2532\18-May-20
 21\0\\#N TD(NStates=10) B3lYP/6-311G(d,p)\\Name\\0,1\C,0,-7.546561,1.2
 8031,2.683097\C,0,-8.592842,0.800254,1.678459\C,0,-7.982348,0.250768,0
 .559527\C,0,-6.560027,0.312166,0.721275\S,0,-5.139569,-0.12657,-0.1544
 42\C,0,-4.110677,0.497597,1.154165\C,0,-4.886064,1.009111,2.184047\C,0
 ,-6.267212,0.903068,1.938473\H,0,-4.434723,1.436566,3.066072\C,0,-2.66
 474,0.421969,1.036834\C,0,-2.033004,-0.180668,-0.038723\C,0,-0.630861,
 -0.259925,-0.188264\C,0,0.271476,0.24855,0.727084\C,0,-0.325305,0.8860
 39,1.870252\N,0,0.341718,1.432283,2.889414\S,0,-0.764611,2.009353,3.94
 5696\N,0,-2.137532,1.584801,3.156203\C,0,-1.773595,0.971653,2.029089\C
 ,0,1.727905,0.129793,0.534743\C,0,2.6277,1.12709,0.949407\C,0,3.989468
 ,1.01524,0.716343\C,0,4.520458,-0.105162,0.056672\C,0,3.630876,-1.1115
 84,-0.353867\C,0,2.271351,-0.992571,-0.11446\H,0,1.61859,-1.799849,-0.
 426\H,0,4.012512,-1.990779,-0.857038\N,0,5.905965,-0.218076,-0.183178\
 C,0,6.541714,-1.490986,-0.162595\C,0,7.452277,-1.849593,-1.164607\C,0,
 8.080003,-3.08788,-1.142777\C,0,7.814461,-4.022365,-0.129081\C,0,6.902
 809,-3.649608,0.871239\C,0,6.281857,-2.406948,0.86377\H,0,5.59547,-2.1
 38317,1.657746\H,0,6.698462,-4.333679,1.687379\C,0,8.431479,-5.372355,
 -0.123591\C,0,7.65544,-6.504999,0.184186\C,0,8.175336,-7.787662,0.1793
 45\C,0,9.520917,-7.991698,-0.146516\C,0,10.322163,-6.890794,-0.449187\
 C,0,9.78101,-5.603663,-0.436548\O,0,10.63086,-4.567494,-0.772508\C,0,1
 1.174607,-3.854858,0.341958\H,0,11.768846,-4.521873,0.977035\H,0,11.81
 8644,-3.079567,-0.07252\H,0,10.385781,-3.390238,0.941552\H,0,11.366991
 ,-6.989955,-0.708897\O,0,9.950727,-9.284025,-0.144623\C,0,11.303899,-9
 .547345,-0.489284\H,0,11.419341,-10.628514,-0.434744\H,0,11.531966,-9.
 209206,-1.506079\H,0,11.997205,-9.07373,0.214791\H,0,7.557214,-8.64819
 9,0.402949\H,0,6.602998,-6.368378,0.405019\H,0,8.776499,-3.344012,-1.9
 29784\H,0,7.660802,-1.152742,-1.967442\C,0,6.68419,0.938764,-0.477466\
 C,0,7.924033,1.137885,0.141914\C,0,8.692136,2.255911,-0.153082\C,0,8.2
 5176,3.224345,-1.068286\C,0,7.002848,3.017724,-1.673254\C,0,6.234035,1
 .894297,-1.394612\H,0,5.276141,1.759105,-1.882366\H,0,6.622935,3.75359
 4,-2.37299\C,0,9.074355,4.404066,-1.438322\C,0,9.741533,5.204812,-0.48
 8005\C,0,10.490422,6.32069,-0.879745\C,0,10.589114,6.656541,-2.233187\
 C,0,9.938791,5.878317,-3.191525\C,0,9.200749,4.778553,-2.783035\H,0,8.
 714408,4.166883,-3.534234\H,0,10.032331,6.144342,-4.236502\O,0,11.2994
 41,7.720324,-2.704903\C,0,11.985477,8.550716,-1.780708\H,0,12.745332,7
 .991399,-1.222891\H,0,12.473802,9.31926,-2.377619\H,0,11.294191,9.0276
 27,-1.076442\H,0,10.986088,6.922385,-0.134488\O,0,9.602716,4.840751,0.
 820595\C,0,10.183472,5.647349,1.833286\H,0,11.275635,5.680701,1.748293
 \H,0,9.784755,6.667732,1.813423\H,0,9.912805,5.176009,2.776807\H,0,9.6
 46101,2.386068,0.339831\H,0,8.285881,0.405206,0.853395\H,0,4.654626,1.
 802552,1.047713\H,0,2.255914,1.998856,1.468874\H,0,-0.2525,-0.727024,-
 1.089395\H,0,-2.635999,-0.614377,-0.82843\S,0,-9.123789,-0.305543,-0.6
 05419\C,0,-10.469575,0.212829,0.424075\C,0,-9.994005,0.777274,1.599899
 \H,0,-10.653402,1.174492,2.359953\C,0,-11.846087,0.026495,0.002967\C,0
 ,-12.911052,0.188287,0.91453\C,0,-14.2207,0.019765,0.513571\C,0,-14.55
 3611,-0.327482,-0.814183\C,0,-13.488229,-0.495374,-1.72485\C,0,-12.178
 791,-0.320031,-1.325168\H,0,-11.391855,-0.44104,-2.060468\H,0,-13.6837
 93,-0.758683,-2.755101\C,0,-15.951965,-0.484358,-1.128773\C,0,-16.5981
 11,-0.801101,-2.284978\C,0,-15.969472,-1.065192,-3.530449\N,0,-15.5442
 01,-1.294906,-4.583914\C,0,-18.103574,-0.878389,-2.242749\O,0,-18.7380
 18,-0.672509,-1.243038\O,0,-18.723307,-1.195286,-3.399137\H,0,-18.0877
 52,-1.332222,-4.115879\H,0,-16.637229,-0.323158,-0.300363\H,0,-15.0184
 92,0.148074,1.237166\H,0,-12.704703,0.430789,1.949174\C,0,-7.637268,2.
 804247,2.911604\H,0,-7.558605,3.347206,1.967676\H,0,-8.589316,3.066421
 ,3.381452\H,0,-6.831512,3.140233,3.569513\C,0,-7.660911,0.524229,4.024
 198\H,0,-7.602613,-0.555306,3.871714\H,0,-6.853024,0.819794,4.698782\H
 ,0,-8.611489,0.752222,4.514437\\Version=ES64L-G09RevD.01\State=1-A\HF=
 -4217.8467466\RMSD=3.863e-09\PG=C01 [X(C61H46N4O6S3)]\\@


 YOU KNOW YOU'RE A TEACHER WHEN YOU SAY 2, WRITE 3, AND MEAN 4.
 -- RONALD ANSTROM, HIGH SCHOOL TEACHER, UNDERWOOD, N.D. 1974
 Job cpu time:       0 days 11 hours 30 minutes 35.0 seconds.
 File lengths (MBytes):  RWF=   6445 Int=      0 D2E=      0 Chk=    934 Scr=      1
 Normal termination of Gaussian 09 at Tue May 18 20:42:09 2021.
