 Entering Gaussian System, Link 0=/usr/local/apps//g09/g09
 Input=mexc.com
 Output=mexc.out
 Initial command:
 /usr/local/apps//g09/l1.exe "/tmp/bnp.486052.sequoia/Gau-10932.inp" -scrdir="/tmp/bnp.486052.sequoia/"
 Entering Link 1 = /usr/local/apps//g09/l1.exe PID=     10933.
  
 Copyright (c) 1988,1990,1992,1993,1995,1998,2003,2009,2013,
            Gaussian, Inc.  All Rights Reserved.
  
 This is part of the Gaussian(R) 09 program.  It is based on
 the Gaussian(R) 03 system (copyright 2003, Gaussian, Inc.),
 the Gaussian(R) 98 system (copyright 1998, Gaussian, Inc.),
 the Gaussian(R) 94 system (copyright 1995, Gaussian, Inc.),
 the Gaussian 92(TM) system (copyright 1992, Gaussian, Inc.),
 the Gaussian 90(TM) system (copyright 1990, Gaussian, Inc.),
 the Gaussian 88(TM) system (copyright 1988, Gaussian, Inc.),
 the Gaussian 86(TM) system (copyright 1986, Carnegie Mellon
 University), and the Gaussian 82(TM) system (copyright 1983,
 Carnegie Mellon University). Gaussian is a federally registered
 trademark of Gaussian, Inc.
  
 This software contains proprietary and confidential information,
 including trade secrets, belonging to Gaussian, Inc.
  
 This software is provided under written license and may be
 used, copied, transmitted, or stored only in accord with that
 written license.
  
 The following legend is applicable only to US Government
 contracts under FAR:
  
                    RESTRICTED RIGHTS LEGEND
  
 Use, reproduction and disclosure by the US Government is
 subject to restrictions as set forth in subparagraphs (a)
 and (c) of the Commercial Computer Software - Restricted
 Rights clause in FAR 52.227-19.
  
 Gaussian, Inc.
 340 Quinnipiac St., Bldg. 40, Wallingford CT 06492
  
  
 ---------------------------------------------------------------
 Warning -- This program may not be used in any manner that
 competes with the business of Gaussian, Inc. or will provide
 assistance to any competitor of Gaussian, Inc.  The licensee
 of this program is prohibited from giving any competitor of
 Gaussian, Inc. access to this program.  By using this program,
 the user acknowledges that Gaussian, Inc. is engaged in the
 business of creating and licensing software in the field of
 computational chemistry and represents and warrants to the
 licensee that it is not a competitor of Gaussian, Inc. and that
 it will not use this program in any manner prohibited above.
 ---------------------------------------------------------------
  

 Cite this work as:
 Gaussian 09, Revision D.01,
 M. J. Frisch, G. W. Trucks, H. B. Schlegel, G. E. Scuseria, 
 M. A. Robb, J. R. Cheeseman, G. Scalmani, V. Barone, B. Mennucci, 
 G. A. Petersson, H. Nakatsuji, M. Caricato, X. Li, H. P. Hratchian, 
 A. F. Izmaylov, J. Bloino, G. Zheng, J. L. Sonnenberg, M. Hada, 
 M. Ehara, K. Toyota, R. Fukuda, J. Hasegawa, M. Ishida, T. Nakajima, 
 Y. Honda, O. Kitao, H. Nakai, T. Vreven, J. A. Montgomery, Jr., 
 J. E. Peralta, F. Ogliaro, M. Bearpark, J. J. Heyd, E. Brothers, 
 K. N. Kudin, V. N. Staroverov, T. Keith, R. Kobayashi, J. Normand, 
 K. Raghavachari, A. Rendell, J. C. Burant, S. S. Iyengar, J. Tomasi, 
 M. Cossi, N. Rega, J. M. Millam, M. Klene, J. E. Knox, J. B. Cross, 
 V. Bakken, C. Adamo, J. Jaramillo, R. Gomperts, R. E. Stratmann, 
 O. Yazyev, A. J. Austin, R. Cammi, C. Pomelli, J. W. Ochterski, 
 R. L. Martin, K. Morokuma, V. G. Zakrzewski, G. A. Voth, 
 P. Salvador, J. J. Dannenberg, S. Dapprich, A. D. Daniels, 
 O. Farkas, J. B. Foresman, J. V. Ortiz, J. Cioslowski, 
 and D. J. Fox, Gaussian, Inc., Wallingford CT, 2013.
 
 ******************************************
 Gaussian 09:  ES64L-G09RevD.01 24-Apr-2013
                14-Jul-2021 
 ******************************************
 %mem=8gb
 ---------------------------------------
 #N BHandHLYP/6-311G(d,p) TD(NStates=10)
 ---------------------------------------
 1/38=1/1;
 2/12=2,17=6,18=5,40=1/2;
 3/5=4,6=6,7=101,11=9,16=1,25=1,30=1,74=-3/1,2,8,3;
 4//1;
 5/5=2,38=5/2;
 8/6=1,10=2,108=10/1;
 9/41=10,42=1,70=2/14;
 6/7=2,8=2,9=2,10=2/1;
 99/5=1,9=1/99;
 ----
 Name
 ----
 Symbolic Z-matrix:
 Charge =  0 Multiplicity = 1
 C1                    1.58387  -0.55669  -0.16471 
 C2                    2.61657  -1.50134  -0.01182 
 C3                    3.94299  -1.10998   0.07613 
 C4                    1.95556   0.79934  -0.21684 
 C5                    3.27811   1.19578  -0.11278 
 C6                    4.30251   0.24617   0.0318 
 N7                    5.65374   0.64486   0.12987 
 C8                    6.55567  -0.06675   0.97149 
 C9                    7.83806  -0.39774   0.51534 
 C10                   8.72262  -1.08069   1.34403 
 C11                   8.34085  -1.45734   2.63042 
 C12                   7.06334  -1.13434   3.08479 
 C13                   6.17821  -0.43714   2.269 
 C14                   6.13122   1.76139  -0.61441 
 C15                   6.95642   2.71635  -0.00671 
 C16                   7.43314   3.79877  -0.73917 
 C17                   7.08455   3.95555  -2.07944 
 C18                   6.25847   3.01007  -2.68495 
 C19                   5.79083   1.91572  -1.96467 
 C20                   0.18548  -0.96234  -0.25654 
 C21                  -0.35657  -2.19213  -0.56493 
 O22                   0.39056  -3.3047   -0.84681 
 C23                  -0.35663  -4.32716  -1.518 
 C24                  -1.68253  -4.54896  -0.81782 
 O25                  -2.47781  -3.35345  -0.86615 
 C26                  -1.78056  -2.21838  -0.57188 
 C27                  -2.37284  -1.00462  -0.27364 
 S28                  -1.10966   0.17976   0.03917 
 C29                  -3.77552  -0.64738  -0.18092 
 C30                  -4.79979  -1.54477  -0.55533 
 C31                  -6.12815  -1.17921  -0.45526 
 C32                  -6.52303   0.09068   0.01635 
 C33                  -7.93606   0.36638   0.08 
 C34                  -8.63666   1.46472   0.47852 
 C35                  -8.06526   2.67364   0.95603 
 N36                  -7.68972   3.6947    1.35604 
 C37                  -10.14066   1.39541   0.40821 
 O38                  -10.8137   2.49614   0.8066 
 O39                  -10.73151   0.4227    0.02147 
 C40                  -5.49784   0.98828   0.38747 
 C41                  -4.17082   0.626     0.29075 
 H42                   2.37434  -2.55358   0.02801 
 H43                   4.71425  -1.8622    0.18404 
 H44                   1.19554   1.56258  -0.34115 
 H45                   3.52614   2.24897  -0.14773 
 H46                   8.13586  -0.11469  -0.48695 
 H47                   9.71178  -1.32947   0.97596 
 H48                   9.0305   -1.99406   3.27125 
 H49                   6.75613  -1.413     4.08668 
 H50                   5.1914   -0.17655   2.63192 
 H51                   7.22117   2.60379   1.03757 
 H52                   8.07027   4.52997  -0.25426 
 H53                   7.45247   4.80342  -2.64521 
 H54                   5.9862    3.11549  -3.72922 
 H55                   5.16049   1.1758   -2.44275 
 H56                   0.25986  -5.22555  -1.48597 
 H57                  -0.52078  -4.03793  -2.56239 
 H58                  -1.51877  -4.83348   0.22726 
 H59                  -2.26955  -5.32112  -1.31499 
 H60                  -4.54125  -2.52477  -0.92619 
 H61                  -6.89416  -1.88809  -0.75141 
 H62                  -8.58356  -0.44311  -0.24763 
 H63                  -10.20914   3.19665   1.08976 
 H64                  -5.73911   1.97527   0.75729 
 H65                  -3.41728   1.34337   0.59406 
 
 Stoichiometry    C34H24N2O4S
 Framework group  C1[X(C34H24N2O4S)]
 Deg. of freedom   189
 Full point group                 C1      NOp   1
 Largest Abelian subgroup         C1      NOp   1
 Largest concise Abelian subgroup C1      NOp   1
                         Standard orientation:                         
 ---------------------------------------------------------------------
 Center     Atomic      Atomic             Coordinates (Angstroms)
 Number     Number       Type             X           Y           Z
 ---------------------------------------------------------------------
      1          6           0       -1.583874    0.556693   -0.164710
      2          6           0       -2.616567    1.501336   -0.011816
      3          6           0       -3.942989    1.109980    0.076132
      4          6           0       -1.955555   -0.799337   -0.216835
      5          6           0       -3.278111   -1.195779   -0.112784
      6          6           0       -4.302513   -0.246165    0.031800
      7          7           0       -5.653743   -0.644860    0.129870
      8          6           0       -6.555670    0.066752    0.971486
      9          6           0       -7.838060    0.397737    0.515342
     10          6           0       -8.722623    1.080689    1.344026
     11          6           0       -8.340848    1.457342    2.630424
     12          6           0       -7.063338    1.134339    3.084793
     13          6           0       -6.178212    0.437140    2.268997
     14          6           0       -6.131217   -1.761390   -0.614412
     15          6           0       -6.956415   -2.716346   -0.006713
     16          6           0       -7.433142   -3.798766   -0.739167
     17          6           0       -7.084546   -3.955554   -2.079443
     18          6           0       -6.258475   -3.010070   -2.684947
     19          6           0       -5.790828   -1.915720   -1.964668
     20          6           0       -0.185482    0.962340   -0.256540
     21          6           0        0.356566    2.192127   -0.564926
     22          8           0       -0.390562    3.304695   -0.846805
     23          6           0        0.356626    4.327160   -1.518002
     24          6           0        1.682531    4.548965   -0.817823
     25          8           0        2.477808    3.353448   -0.866145
     26          6           0        1.780564    2.218376   -0.571879
     27          6           0        2.372844    1.004615   -0.273638
     28         16           0        1.109661   -0.179762    0.039166
     29          6           0        3.775522    0.647382   -0.180919
     30          6           0        4.799792    1.544768   -0.555334
     31          6           0        6.128149    1.179214   -0.455261
     32          6           0        6.523026   -0.090680    0.016352
     33          6           0        7.936061   -0.366375    0.079998
     34          6           0        8.636656   -1.464719    0.478523
     35          6           0        8.065263   -2.673643    0.956033
     36          7           0        7.689718   -3.694698    1.356037
     37          6           0       10.140658   -1.395407    0.408212
     38          8           0       10.813696   -2.496137    0.806598
     39          8           0       10.731511   -0.422698    0.021469
     40          6           0        5.497845   -0.988283    0.387471
     41          6           0        4.170822   -0.625996    0.290747
     42          1           0       -2.374338    2.553585    0.028009
     43          1           0       -4.714250    1.862200    0.184040
     44          1           0       -1.195538   -1.562581   -0.341151
     45          1           0       -3.526140   -2.248973   -0.147733
     46          1           0       -8.135862    0.114688   -0.486946
     47          1           0       -9.711776    1.329472    0.975962
     48          1           0       -9.030505    1.994060    3.271253
     49          1           0       -6.756134    1.413000    4.086683
     50          1           0       -5.191399    0.176549    2.631921
     51          1           0       -7.221172   -2.603789    1.037568
     52          1           0       -8.070273   -4.529970   -0.254258
     53          1           0       -7.452466   -4.803421   -2.645213
     54          1           0       -5.986196   -3.115491   -3.729222
     55          1           0       -5.160487   -1.175801   -2.442754
     56          1           0       -0.259860    5.225547   -1.485974
     57          1           0        0.520780    4.037932   -2.562391
     58          1           0        1.518767    4.833477    0.227260
     59          1           0        2.269554    5.321118   -1.314991
     60          1           0        4.541252    2.524766   -0.926188
     61          1           0        6.894159    1.888091   -0.751406
     62          1           0        8.583563    0.443108   -0.247632
     63          1           0       10.209140   -3.196646    1.089759
     64          1           0        5.739114   -1.975266    0.757291
     65          1           0        3.417278   -1.343373    0.594055
 ---------------------------------------------------------------------
 Rotational constants (GHZ):      0.1603720      0.0247312      0.0227806
 Standard basis: 6-311G(d,p) (5D, 7F)
 There are   931 symmetry adapted cartesian basis functions of A   symmetry.
 There are   890 symmetry adapted basis functions of A   symmetry.
   890 basis functions,  1518 primitive gaussians,   931 cartesian basis functions
   145 alpha electrons      145 beta electrons
       nuclear repulsion energy      4184.8263305700 Hartrees.
 NAtoms=   65 NActive=   65 NUniq=   65 SFac= 1.00D+00 NAtFMM=   60 NAOKFM=T Big=T
 Integral buffers will be    131072 words long.
 Regular integral format.
 Two-electron integral symmetry is turned on.
 One-electron integrals computed using PRISM.
 NBasis=   890 RedAO= T EigKep=  1.28D-04  NBF=   890
 NBsUse=   890 1.00D-06 EigRej= -1.00D+00 NBFU=   890
 ExpMin= 7.71D-02 ExpMax= 9.34D+04 ExpMxC= 3.17D+03 IAcc=2 IRadAn=         4 AccDes= 0.00D+00
 Harris functional with IExCor=  402 and IRadAn=       4 diagonalized for initial guess.
 HarFok:  IExCor=  402 AccDes= 0.00D+00 IRadAn=         4 IDoV= 1 UseB2=F ITyADJ=14
 ICtDFT=  3500011 ScaDFX=  1.000000  1.000000  1.000000  1.000000
 FoFCou: FMM=F IPFlag=           0 FMFlag=      100000 FMFlg1=        2001
         NFxFlg=           0 DoJE=T BraDBF=F KetDBF=T FulRan=T
         wScrn=  0.000000 ICntrl=     500 IOpCl=  0 I1Cent=   200000004 NGrid=           0
         NMat0=    1 NMatS0=      1 NMatT0=    0 NMatD0=    1 NMtDS0=    0 NMtDT0=    0
 Petite list used in FoFCou.
 Requested convergence on RMS density matrix=1.00D-08 within 128 cycles.
 Requested convergence on MAX density matrix=1.00D-06.
 Requested convergence on             energy=1.00D-06.
 No special actions if energy rises.
 Integral accuracy reduced to 1.0D-05 until final iterations.
 Initial convergence to 1.0D-05 achieved.  Increase integral accuracy.
 SCF Done:  E(RBHandHLYP) =  -2118.01095874     A.U. after   15 cycles
            NFock= 15  Conv=0.76D-08     -V/T= 2.0035
 DoSCS=F DFT=T ScalE2(SS,OS)=  1.000000  1.000000
 ExpMin= 7.71D-02 ExpMax= 9.34D+04 ExpMxC= 3.17D+03 IAcc=3 IRadAn=         5 AccDes= 0.00D+00
 HarFok:  IExCor=  205 AccDes= 0.00D+00 IRadAn=         5 IDoV=-2 UseB2=F ITyADJ=14
 ICtDFT= 12500011 ScaDFX=  1.000000  1.000000  1.000000  1.000000
 Range of M.O.s used for correlation:    46   890
 NBasis=   890 NAE=   145 NBE=   145 NFC=    45 NFV=     0
 NROrb=    845 NOA=   100 NOB=   100 NVA=   745 NVB=   745

 **** Warning!!: The largest alpha MO coefficient is  0.15457230D+02

 Would need an additional        235144100000 words for in-memory AO integral storage.
 Orbital symmetries:
       Occupied  (A) (A) (A) (A) (A) (A) (A) (A) (A) (A) (A) (A)
                 (A) (A) (A) (A) (A) (A) (A) (A) (A) (A) (A) (A)
                 (A) (A) (A) (A) (A) (A) (A) (A) (A) (A) (A) (A)
                 (A) (A) (A) (A) (A) (A) (A) (A) (A) (A) (A) (A)
                 (A) (A) (A) (A) (A) (A) (A) (A) (A) (A) (A) (A)
                 (A) (A) (A) (A) (A) (A) (A) (A) (A) (A) (A) (A)
                 (A) (A) (A) (A) (A) (A) (A) (A) (A) (A) (A) (A)
                 (A) (A) (A) (A) (A) (A) (A) (A) (A) (A) (A) (A)
                 (A) (A) (A) (A) (A) (A) (A) (A) (A) (A) (A) (A)
                 (A) (A) (A) (A) (A) (A) (A) (A) (A) (A) (A) (A)
                 (A) (A) (A) (A) (A) (A) (A) (A) (A) (A) (A) (A)
                 (A) (A) (A) (A) (A) (A) (A) (A) (A) (A) (A) (A)
                 (A)
       Virtual   (A) (A) (A) (A) (A) (A) (A) (A) (A) (A) (A) (A)
                 (A) (A) (A) (A) (A) (A) (A) (A) (A) (A) (A) (A)
                 (A) (A) (A) (A) (A) (A) (A) (A) (A) (A) (A) (A)
                 (A) (A) (A) (A) (A) (A) (A) (A) (A) (A) (A) (A)
                 (A) (A) (A) (A) (A) (A) (A) (A) (A) (A) (A) (A)
                 (A) (A) (A) (A) (A) (A) (A) (A) (A) (A) (A) (A)
                 (A) (A) (A) (A) (A) (A) (A) (A) (A) (A) (A) (A)
                 (A) (A) (A) (A) (A) (A) (A) (A) (A) (A) (A) (A)
                 (A) (A) (A) (A) (A) (A) (A) (A) (A) (A) (A) (A)
                 (A) (A) (A) (A) (A) (A) (A) (A) (A) (A) (A) (A)
                 (A) (A) (A) (A) (A) (A) (A) (A) (A) (A) (A) (A)
                 (A) (A) (A) (A) (A) (A) (A) (A) (A) (A) (A) (A)
                 (A) (A) (A) (A) (A) (A) (A) (A) (A) (A) (A) (A)
                 (A) (A) (A) (A) (A) (A) (A) (A) (A) (A) (A) (A)
                 (A) (A) (A) (A) (A) (A) (A) (A) (A) (A) (A) (A)
                 (A) (A) (A) (A) (A) (A) (A) (A) (A) (A) (A) (A)
                 (A) (A) (A) (A) (A) (A) (A) (A) (A) (A) (A) (A)
                 (A) (A) (A) (A) (A) (A) (A) (A) (A) (A) (A) (A)
                 (A) (A) (A) (A) (A) (A) (A) (A) (A) (A) (A) (A)
                 (A) (A) (A) (A) (A) (A) (A) (A) (A) (A) (A) (A)
                 (A) (A) (A) (A) (A) (A) (A) (A) (A) (A) (A) (A)
                 (A) (A) (A) (A) (A) (A) (A) (A) (A) (A) (A) (A)
                 (A) (A) (A) (A) (A) (A) (A) (A) (A) (A) (A) (A)
                 (A) (A) (A) (A) (A) (A) (A) (A) (A) (A) (A) (A)
                 (A) (A) (A) (A) (A) (A) (A) (A) (A) (A) (A) (A)
                 (A) (A) (A) (A) (A) (A) (A) (A) (A) (A) (A) (A)
                 (A) (A) (A) (A) (A) (A) (A) (A) (A) (A) (A) (A)
                 (A) (A) (A) (A) (A) (A) (A) (A) (A) (A) (A) (A)
                 (A) (A) (A) (A) (A) (A) (A) (A) (A) (A) (A) (A)
                 (A) (A) (A) (A) (A) (A) (A) (A) (A) (A) (A) (A)
                 (A) (A) (A) (A) (A) (A) (A) (A) (A) (A) (A) (A)
                 (A) (A) (A) (A) (A) (A) (A) (A) (A) (A) (A) (A)
                 (A) (A) (A) (A) (A) (A) (A) (A) (A) (A) (A) (A)
                 (A) (A) (A) (A) (A) (A) (A) (A) (A) (A) (A) (A)
                 (A) (A) (A) (A) (A) (A) (A) (A) (A) (A) (A) (A)
                 (A) (A) (A) (A) (A) (A) (A) (A) (A) (A) (A) (A)
                 (A) (A) (A) (A) (A) (A) (A) (A) (A) (A) (A) (A)
                 (A) (A) (A) (A) (A) (A) (A) (A) (A) (A) (A) (A)
                 (A) (A) (A) (A) (A) (A) (A) (A) (A) (A) (A) (A)
                 (A) (A) (A) (A) (A) (A) (A) (A) (A) (A) (A) (A)
                 (A) (A) (A) (A) (A) (A) (A) (A) (A) (A) (A) (A)
                 (A) (A) (A) (A) (A) (A) (A) (A) (A) (A) (A) (A)
                 (A) (A) (A) (A) (A) (A) (A) (A) (A) (A) (A) (A)
                 (A) (A) (A) (A) (A) (A) (A) (A) (A) (A) (A) (A)
                 (A) (A) (A) (A) (A) (A) (A) (A) (A) (A) (A) (A)
                 (A) (A) (A) (A) (A) (A) (A) (A) (A) (A) (A) (A)
                 (A) (A) (A) (A) (A) (A) (A) (A) (A) (A) (A) (A)
                 (A) (A) (A) (A) (A) (A) (A) (A) (A) (A) (A) (A)
                 (A) (A) (A) (A) (A) (A) (A) (A) (A) (A) (A) (A)
                 (A) (A) (A) (A) (A) (A) (A) (A) (A) (A) (A) (A)
                 (A) (A) (A) (A) (A) (A) (A) (A) (A) (A) (A) (A)
                 (A) (A) (A) (A) (A) (A) (A) (A) (A) (A) (A) (A)
                 (A) (A) (A) (A) (A) (A) (A) (A) (A) (A) (A) (A)
                 (A) (A) (A) (A) (A) (A) (A) (A) (A) (A) (A) (A)
                 (A) (A) (A) (A) (A) (A) (A) (A) (A) (A) (A) (A)
                 (A) (A) (A) (A) (A) (A) (A) (A) (A) (A) (A) (A)
                 (A) (A) (A) (A) (A) (A) (A) (A) (A) (A) (A) (A)
                 (A) (A) (A) (A) (A) (A) (A) (A) (A) (A) (A) (A)
                 (A) (A) (A) (A) (A) (A) (A) (A) (A) (A) (A) (A)
                 (A) (A) (A) (A) (A) (A) (A) (A) (A) (A) (A) (A)
                 (A) (A) (A) (A) (A) (A) (A) (A) (A) (A) (A) (A)
                 (A) (A) (A) (A) (A) (A) (A) (A) (A) (A) (A) (A)
                 (A)
    40 initial guesses have been made.
 Convergence on wavefunction:    0.001000000000000
 Iteration     1 Dimension    40 NMult     0 NNew     40
 CISAX will form    40 AO SS matrices at one time.
 New state      5 was old state      8
 New state      6 was old state     14
 New state      7 was old state     12
 New state      8 was old state      5
 New state      9 was old state     17
 New state     10 was old state      9
 Iteration     2 Dimension    60 NMult    40 NNew     20
 New state      8 was old state     10
 New state      9 was old state      8
 New state     10 was old state      9
 Iteration     3 Dimension    80 NMult    60 NNew     20
 Iteration     4 Dimension   100 NMult    80 NNew     20
 Iteration     5 Dimension   120 NMult   100 NNew     20
 Iteration     6 Dimension   138 NMult   120 NNew     18
 Iteration     7 Dimension   144 NMult   138 NNew      6
 Iteration     8 Dimension   148 NMult   144 NNew      4
 ***********************************************************************
 Excited states from <AA,BB:AA,BB> singles matrix:
 ***********************************************************************
 
 Ground to excited state transition densities written to RWF  633
 Ground to excited state transition electric dipole moments (Au):
       state          X           Y           Z        Dip. S.      Osc.
         1        -4.5892      0.4857     -0.1727     21.3269      1.5120
         2        -0.8240      1.2721     -0.3732      2.4365      0.2303
         3        -1.3576     -0.7435      0.2181      2.4434      0.2441
         4        -0.1796     -0.6482      0.1723      0.4821      0.0506
         5        -0.2628      0.0308     -0.3522      0.1941      0.0208
         6         0.2112     -0.3896      0.1255      0.2121      0.0236
         7        -0.2743      1.0725      0.8435      1.9370      0.2195
         8        -0.8339      0.3996     -0.1196      0.8694      0.1010
         9        -0.0352     -0.1090      0.4400      0.2067      0.0248
        10         0.0906      0.4907     -0.0254      0.2496      0.0303
 Ground to excited state transition velocity dipole moments (Au):
       state          X           Y           Z        Dip. S.      Osc.
         1         0.4782     -0.0503      0.0193      0.2316      1.4520
         2         0.1159     -0.1790      0.0528      0.0483      0.2270
         3         0.2061      0.1114     -0.0311      0.0558      0.2484
         4         0.0261      0.1004     -0.0267      0.0115      0.0486
         5         0.0444     -0.0150      0.0653      0.0065      0.0268
         6        -0.0363      0.0646     -0.0198      0.0059      0.0235
         7         0.0476     -0.1856     -0.1434      0.0573      0.2247
         8         0.1474     -0.0681      0.0173      0.0267      0.1020
         9         0.0036      0.0231     -0.0854      0.0078      0.0291
        10        -0.0166     -0.0899      0.0050      0.0084      0.0307
 Ground to excited state transition magnetic dipole moments (Au):
       state          X           Y           Z
         1         0.0758     -0.6070     -2.1065
         2        -0.1024     -0.4609     -1.4637
         3         0.1270     -0.0906     -0.3534
         4         0.0344     -0.0834      0.0467
         5        -0.3599      1.5782     -0.5492
         6        -0.0439      0.1291      0.2701
         7         0.2202     -1.5674      1.7754
         8         0.0845     -0.6059     -1.1531
         9         0.3144     -1.2444      0.8146
        10         0.0448     -0.7572     -0.8051
 Ground to excited state transition velocity quadrupole moments (Au):
       state          XX          YY          ZZ          XY          XZ          YZ
         1         3.0232     -0.0517     -0.1424     -1.2431      0.4150     -0.2539
         2         6.6912      0.0283      0.1831     -1.2209      0.3526      0.1288
         3        -4.1201     -0.1187     -0.2691      0.1287      0.0170     -0.3161
         4        -0.7190      0.6379     -0.0094      0.2464      0.0155     -0.1764
         5        -0.6052      0.0339      0.0089      0.1285     -0.8401     -0.1839
         6         0.3876      0.1545      0.0762      0.8594     -0.3379      0.0531
         7        -1.3134      0.9484     -0.1502      2.6761      2.0991      0.2190
         8         2.7739      0.4357     -0.2071     -2.0698      0.7834     -0.3737
         9        -1.0823     -0.0602     -0.1476      0.4209      0.7886      0.0493
        10         2.6216      0.2712      0.2832     -0.3604      0.4234      0.2310
 <0|del|b> * <b|rxdel|0> + <0|del|b> * <b|delr+rdel|0>
 Rotatory Strengths (R) in cgs (10**-40 erg-esu-cm/Gauss)
       state          XX          YY          ZZ    R(velocity)    E-M Angle
         1       -44.1570   -338.6970    556.3319     57.8260       88.58
         2         9.9149    -24.3218    -18.4739    -10.9603       91.12
         3       -11.7775    -56.5829    196.0895     42.5764       72.75
         4       -39.8408      3.6513     -2.9622    -13.0506      143.27
         5      -140.1523   -150.3483    -41.5554   -110.6853      123.35
         6        16.5957     23.9799    -21.1039      6.4906       78.58
         7        87.4405    312.1781   -205.1463     64.8241       85.29
         8        79.0940    -54.3828    112.5326     45.7479       80.87
         9      -299.6476    -63.4652    -18.8099   -127.3076      136.22
        10       194.9431    -13.1788     64.2892     82.0178       51.29
 1/2[<0|r|b>*<b|rxdel|0> + (<0|rxdel|b>*<b|r|0>)*]
 Rotatory Strengths (R) in cgs (10**-40 erg-esu-cm/Gauss)
       state          XX          YY          ZZ     R(length)
         1       245.9129    208.4965   -257.2806     65.7096
         2       -59.6623    414.6570   -386.2975    -10.4343
         3       121.9112    -47.6269     54.4878     42.9240
         4         4.3722    -38.2115     -5.6938    -13.1777
         5       -66.8764    -34.3697   -136.7917    -79.3459
         6         6.5612     35.5654    -23.9782      6.0495
         7        42.7033   1188.7948  -1058.9978     57.5001
         8        49.8323    171.2168    -97.4926     41.1855
         9         7.8377    -95.9089   -253.4517   -113.8410
        10        -2.8686    262.7479    -14.4525     81.8089
  1/2[<0|del|b>*<b|r|0> + (<0|r|b>*<b|del|0>)*] (Au)
       state          X           Y           Z        Dip. S.   Osc.(frdel)
         1        -2.1948     -0.0245     -0.0033      2.2225      1.4817
         2        -0.0955     -0.2277     -0.0197      0.3429      0.2286
         3        -0.2798     -0.0828     -0.0068      0.3694      0.2462
         4        -0.0047     -0.0651     -0.0046      0.0744      0.0496
         5        -0.0117     -0.0005     -0.0230      0.0351      0.0234
         6        -0.0077     -0.0252     -0.0025      0.0353      0.0235
         7        -0.0131     -0.1991     -0.1210      0.3331      0.2221
         8        -0.1229     -0.0272     -0.0021      0.1522      0.1015
         9        -0.0001     -0.0025     -0.0376      0.0402      0.0268
        10        -0.0015     -0.0441     -0.0001      0.0458      0.0305

 Excitation energies and oscillator strengths:
 
 Excited State   1:      Singlet-A      2.8938 eV  428.45 nm  f=1.5120  <S**2>=0.000
     144 ->146         0.24222
     145 ->146         0.63065
     145 ->147         0.17255
 This state for optimization and/or second-order correction.
 Total Energy, E(TD-HF/TD-KS) =  -2117.90461454    
 Copying the excited state density for this state as the 1-particle RhoCI density.
 
 Excited State   2:      Singlet-A      3.8578 eV  321.38 nm  f=0.2303  <S**2>=0.000
     140 ->146         0.12149
     142 ->146         0.10783
     143 ->146        -0.10887
     144 ->146         0.61157
     145 ->146        -0.21020
     145 ->147        -0.14314
 
 Excited State   3:      Singlet-A      4.0780 eV  304.03 nm  f=0.2441  <S**2>=0.000
     144 ->147         0.12303
     145 ->146        -0.20960
     145 ->147         0.62040
     145 ->151         0.13259
 
 Excited State   4:      Singlet-A      4.2848 eV  289.36 nm  f=0.0506  <S**2>=0.000
     143 ->146         0.64473
     143 ->147         0.16902
 
 Excited State   5:      Singlet-A      4.3769 eV  283.27 nm  f=0.0208  <S**2>=0.000
     144 ->148        -0.18146
     145 ->148         0.62606
     145 ->152         0.12426
 
 Excited State   6:      Singlet-A      4.5398 eV  273.10 nm  f=0.0236  <S**2>=0.000
     137 ->146         0.58181
     143 ->146         0.10213
     144 ->150        -0.20570
     145 ->150        -0.24628
 
 Excited State   7:      Singlet-A      4.6263 eV  268.00 nm  f=0.2195  <S**2>=0.000
     144 ->149        -0.27328
     145 ->149         0.62966
 
 Excited State   8:      Singlet-A      4.7403 eV  261.56 nm  f=0.1010  <S**2>=0.000
     136 ->146        -0.19520
     137 ->146         0.14859
     140 ->146         0.40158
     142 ->146         0.30902
     144 ->147        -0.32413
     145 ->151         0.19230
 
 Excited State   9:      Singlet-A      4.8977 eV  253.15 nm  f=0.0248  <S**2>=0.000
     138 ->146        -0.12223
     138 ->147        -0.11069
     139 ->146         0.11056
     139 ->147         0.10945
     140 ->146        -0.10687
     141 ->146         0.18100
     141 ->147         0.11531
     142 ->146        -0.11031
     144 ->147        -0.10147
     144 ->148         0.19903
     145 ->148        -0.11160
     145 ->151         0.19652
     145 ->152         0.44183
 
 Excited State  10:      Singlet-A      4.9558 eV  250.18 nm  f=0.0303  <S**2>=0.000
     140 ->146         0.26470
     142 ->146         0.20738
     144 ->146        -0.16203
     144 ->147         0.39271
     145 ->150        -0.14162
     145 ->151        -0.21814
     145 ->152         0.19829
 SavETr:  write IOETrn=   770 NScale= 10 NData=  16 NLR=1 NState=   10 LETran=     190.

 **********************************************************************

            Population analysis using the SCF density.

 **********************************************************************

 Orbital symmetries:
       Occupied  (A) (A) (A) (A) (A) (A) (A) (A) (A) (A) (A) (A)
                 (A) (A) (A) (A) (A) (A) (A) (A) (A) (A) (A) (A)
                 (A) (A) (A) (A) (A) (A) (A) (A) (A) (A) (A) (A)
                 (A) (A) (A) (A) (A) (A) (A) (A) (A) (A) (A) (A)
                 (A) (A) (A) (A) (A) (A) (A) (A) (A) (A) (A) (A)
                 (A) (A) (A) (A) (A) (A) (A) (A) (A) (A) (A) (A)
                 (A) (A) (A) (A) (A) (A) (A) (A) (A) (A) (A) (A)
                 (A) (A) (A) (A) (A) (A) (A) (A) (A) (A) (A) (A)
                 (A) (A) (A) (A) (A) (A) (A) (A) (A) (A) (A) (A)
                 (A) (A) (A) (A) (A) (A) (A) (A) (A) (A) (A) (A)
                 (A) (A) (A) (A) (A) (A) (A) (A) (A) (A) (A) (A)
                 (A) (A) (A) (A) (A) (A) (A) (A) (A) (A) (A) (A)
                 (A)
       Virtual   (A) (A) (A) (A) (A) (A) (A) (A) (A) (A) (A) (A)
                 (A) (A) (A) (A) (A) (A) (A) (A) (A) (A) (A) (A)
                 (A) (A) (A) (A) (A) (A) (A) (A) (A) (A) (A) (A)
                 (A) (A) (A) (A) (A) (A) (A) (A) (A) (A) (A) (A)
                 (A) (A) (A) (A) (A) (A) (A) (A) (A) (A) (A) (A)
                 (A) (A) (A) (A) (A) (A) (A) (A) (A) (A) (A) (A)
                 (A) (A) (A) (A) (A) (A) (A) (A) (A) (A) (A) (A)
                 (A) (A) (A) (A) (A) (A) (A) (A) (A) (A) (A) (A)
                 (A) (A) (A) (A) (A) (A) (A) (A) (A) (A) (A) (A)
                 (A) (A) (A) (A) (A) (A) (A) (A) (A) (A) (A) (A)
                 (A) (A) (A) (A) (A) (A) (A) (A) (A) (A) (A) (A)
                 (A) (A) (A) (A) (A) (A) (A) (A) (A) (A) (A) (A)
                 (A) (A) (A) (A) (A) (A) (A) (A) (A) (A) (A) (A)
                 (A) (A) (A) (A) (A) (A) (A) (A) (A) (A) (A) (A)
                 (A) (A) (A) (A) (A) (A) (A) (A) (A) (A) (A) (A)
                 (A) (A) (A) (A) (A) (A) (A) (A) (A) (A) (A) (A)
                 (A) (A) (A) (A) (A) (A) (A) (A) (A) (A) (A) (A)
                 (A) (A) (A) (A) (A) (A) (A) (A) (A) (A) (A) (A)
                 (A) (A) (A) (A) (A) (A) (A) (A) (A) (A) (A) (A)
                 (A) (A) (A) (A) (A) (A) (A) (A) (A) (A) (A) (A)
                 (A) (A) (A) (A) (A) (A) (A) (A) (A) (A) (A) (A)
                 (A) (A) (A) (A) (A) (A) (A) (A) (A) (A) (A) (A)
                 (A) (A) (A) (A) (A) (A) (A) (A) (A) (A) (A) (A)
                 (A) (A) (A) (A) (A) (A) (A) (A) (A) (A) (A) (A)
                 (A) (A) (A) (A) (A) (A) (A) (A) (A) (A) (A) (A)
                 (A) (A) (A) (A) (A) (A) (A) (A) (A) (A) (A) (A)
                 (A) (A) (A) (A) (A) (A) (A) (A) (A) (A) (A) (A)
                 (A) (A) (A) (A) (A) (A) (A) (A) (A) (A) (A) (A)
                 (A) (A) (A) (A) (A) (A) (A) (A) (A) (A) (A) (A)
                 (A) (A) (A) (A) (A) (A) (A) (A) (A) (A) (A) (A)
                 (A) (A) (A) (A) (A) (A) (A) (A) (A) (A) (A) (A)
                 (A) (A) (A) (A) (A) (A) (A) (A) (A) (A) (A) (A)
                 (A) (A) (A) (A) (A) (A) (A) (A) (A) (A) (A) (A)
                 (A) (A) (A) (A) (A) (A) (A) (A) (A) (A) (A) (A)
                 (A) (A) (A) (A) (A) (A) (A) (A) (A) (A) (A) (A)
                 (A) (A) (A) (A) (A) (A) (A) (A) (A) (A) (A) (A)
                 (A) (A) (A) (A) (A) (A) (A) (A) (A) (A) (A) (A)
                 (A) (A) (A) (A) (A) (A) (A) (A) (A) (A) (A) (A)
                 (A) (A) (A) (A) (A) (A) (A) (A) (A) (A) (A) (A)
                 (A) (A) (A) (A) (A) (A) (A) (A) (A) (A) (A) (A)
                 (A) (A) (A) (A) (A) (A) (A) (A) (A) (A) (A) (A)
                 (A) (A) (A) (A) (A) (A) (A) (A) (A) (A) (A) (A)
                 (A) (A) (A) (A) (A) (A) (A) (A) (A) (A) (A) (A)
                 (A) (A) (A) (A) (A) (A) (A) (A) (A) (A) (A) (A)
                 (A) (A) (A) (A) (A) (A) (A) (A) (A) (A) (A) (A)
                 (A) (A) (A) (A) (A) (A) (A) (A) (A) (A) (A) (A)
                 (A) (A) (A) (A) (A) (A) (A) (A) (A) (A) (A) (A)
                 (A) (A) (A) (A) (A) (A) (A) (A) (A) (A) (A) (A)
                 (A) (A) (A) (A) (A) (A) (A) (A) (A) (A) (A) (A)
                 (A) (A) (A) (A) (A) (A) (A) (A) (A) (A) (A) (A)
                 (A) (A) (A) (A) (A) (A) (A) (A) (A) (A) (A) (A)
                 (A) (A) (A) (A) (A) (A) (A) (A) (A) (A) (A) (A)
                 (A) (A) (A) (A) (A) (A) (A) (A) (A) (A) (A) (A)
                 (A) (A) (A) (A) (A) (A) (A) (A) (A) (A) (A) (A)
                 (A) (A) (A) (A) (A) (A) (A) (A) (A) (A) (A) (A)
                 (A) (A) (A) (A) (A) (A) (A) (A) (A) (A) (A) (A)
                 (A) (A) (A) (A) (A) (A) (A) (A) (A) (A) (A) (A)
                 (A) (A) (A) (A) (A) (A) (A) (A) (A) (A) (A) (A)
                 (A) (A) (A) (A) (A) (A) (A) (A) (A) (A) (A) (A)
                 (A) (A) (A) (A) (A) (A) (A) (A) (A) (A) (A) (A)
                 (A) (A) (A) (A) (A) (A) (A) (A) (A) (A) (A) (A)
                 (A) (A) (A) (A) (A) (A) (A) (A) (A) (A) (A) (A)
                 (A)
 The electronic state is 1-A.
 Alpha  occ. eigenvalues --  -90.08096 -19.73605 -19.73002 -19.72301 -19.66024
 Alpha  occ. eigenvalues --  -14.83271 -14.81764 -10.73638 -10.67630 -10.67282
 Alpha  occ. eigenvalues --  -10.67114 -10.66751 -10.64607 -10.64353 -10.64207
 Alpha  occ. eigenvalues --  -10.64153 -10.64017 -10.63733 -10.63713 -10.63598
 Alpha  occ. eigenvalues --  -10.63494 -10.61974 -10.61341 -10.61170 -10.61162
 Alpha  occ. eigenvalues --  -10.60639 -10.60154 -10.59956 -10.59561 -10.59451
 Alpha  occ. eigenvalues --  -10.59439 -10.59433 -10.59409 -10.59252 -10.59151
 Alpha  occ. eigenvalues --  -10.59144 -10.59127 -10.59115 -10.59107 -10.58971
 Alpha  occ. eigenvalues --  -10.58947  -8.36850  -6.22636  -6.22375  -6.22029
 Alpha  occ. eigenvalues --   -1.25267  -1.25018  -1.21535  -1.16313  -1.10238
 Alpha  occ. eigenvalues --   -1.05728  -1.02830  -1.00673  -0.98798  -0.98537
 Alpha  occ. eigenvalues --   -0.96654  -0.95730  -0.91286  -0.91052  -0.88556
 Alpha  occ. eigenvalues --   -0.88132  -0.87768  -0.86580  -0.86525  -0.86292
 Alpha  occ. eigenvalues --   -0.84873  -0.83100  -0.81854  -0.79481  -0.76356
 Alpha  occ. eigenvalues --   -0.73929  -0.73010  -0.72669  -0.71571  -0.71053
 Alpha  occ. eigenvalues --   -0.70725  -0.70196  -0.69915  -0.68117  -0.66802
 Alpha  occ. eigenvalues --   -0.66614  -0.64919  -0.64062  -0.62227  -0.62153
 Alpha  occ. eigenvalues --   -0.61401  -0.60569  -0.59836  -0.58020  -0.56777
 Alpha  occ. eigenvalues --   -0.56553  -0.55618  -0.54856  -0.54426  -0.54083
 Alpha  occ. eigenvalues --   -0.53882  -0.53578  -0.53348  -0.53345  -0.52789
 Alpha  occ. eigenvalues --   -0.52341  -0.52035  -0.51818  -0.51069  -0.50887
 Alpha  occ. eigenvalues --   -0.50515  -0.50146  -0.49995  -0.49870  -0.49356
 Alpha  occ. eigenvalues --   -0.47924  -0.47509  -0.46724  -0.46549  -0.45543
 Alpha  occ. eigenvalues --   -0.45387  -0.44755  -0.44685  -0.44338  -0.44120
 Alpha  occ. eigenvalues --   -0.43811  -0.43703  -0.43115  -0.42759  -0.42288
 Alpha  occ. eigenvalues --   -0.41962  -0.41562  -0.41347  -0.41245  -0.40708
 Alpha  occ. eigenvalues --   -0.39556  -0.39142  -0.37945  -0.36640  -0.35593
 Alpha  occ. eigenvalues --   -0.33013  -0.31821  -0.31149  -0.31095  -0.30333
 Alpha  occ. eigenvalues --   -0.29936  -0.29702  -0.28409  -0.25605  -0.22268
 Alpha virt. eigenvalues --   -0.07110  -0.01802   0.01107   0.01782   0.01948
 Alpha virt. eigenvalues --    0.02834   0.03669   0.03798   0.05402   0.05865
 Alpha virt. eigenvalues --    0.05958   0.06112   0.07252   0.07280   0.07949
 Alpha virt. eigenvalues --    0.08329   0.08466   0.08674   0.09208   0.09512
 Alpha virt. eigenvalues --    0.10092   0.10647   0.10849   0.10971   0.11402
 Alpha virt. eigenvalues --    0.12122   0.12211   0.12688   0.13185   0.14235
 Alpha virt. eigenvalues --    0.14614   0.14830   0.15160   0.15354   0.15681
 Alpha virt. eigenvalues --    0.16571   0.17547   0.17619   0.18230   0.19592
 Alpha virt. eigenvalues --    0.19698   0.19879   0.20286   0.20607   0.21398
 Alpha virt. eigenvalues --    0.22111   0.22564   0.22943   0.23203   0.24128
 Alpha virt. eigenvalues --    0.24273   0.25202   0.26796   0.28270   0.28610
 Alpha virt. eigenvalues --    0.28948   0.29131   0.29536   0.30917   0.31345
 Alpha virt. eigenvalues --    0.31476   0.31819   0.32055   0.32210   0.32688
 Alpha virt. eigenvalues --    0.33309   0.33687   0.33925   0.34399   0.34588
 Alpha virt. eigenvalues --    0.35591   0.35852   0.36286   0.36490   0.36810
 Alpha virt. eigenvalues --    0.37187   0.37724   0.38093   0.39283   0.39820
 Alpha virt. eigenvalues --    0.40109   0.40328   0.40956   0.41385   0.41602
 Alpha virt. eigenvalues --    0.42156   0.42268   0.42465   0.42560   0.42803
 Alpha virt. eigenvalues --    0.43594   0.43677   0.43845   0.44082   0.44275
 Alpha virt. eigenvalues --    0.44514   0.44981   0.45289   0.45403   0.45851
 Alpha virt. eigenvalues --    0.46327   0.46566   0.46741   0.46830   0.47651
 Alpha virt. eigenvalues --    0.47778   0.47926   0.48231   0.48371   0.48560
 Alpha virt. eigenvalues --    0.48729   0.49113   0.49270   0.49328   0.49422
 Alpha virt. eigenvalues --    0.49578   0.49734   0.50026   0.50114   0.50249
 Alpha virt. eigenvalues --    0.50821   0.51295   0.51897   0.53024   0.53354
 Alpha virt. eigenvalues --    0.53574   0.53859   0.53942   0.54168   0.54688
 Alpha virt. eigenvalues --    0.55644   0.55982   0.56276   0.56733   0.56989
 Alpha virt. eigenvalues --    0.57399   0.57796   0.58413   0.58508   0.59124
 Alpha virt. eigenvalues --    0.59499   0.59916   0.61149   0.61552   0.61724
 Alpha virt. eigenvalues --    0.61945   0.62129   0.62471   0.62577   0.62601
 Alpha virt. eigenvalues --    0.63038   0.63523   0.63678   0.63867   0.64341
 Alpha virt. eigenvalues --    0.64486   0.65436   0.65599   0.66072   0.66687
 Alpha virt. eigenvalues --    0.67053   0.67077   0.67334   0.67409   0.67662
 Alpha virt. eigenvalues --    0.67932   0.68342   0.68383   0.68511   0.69054
 Alpha virt. eigenvalues --    0.69382   0.69634   0.69806   0.70090   0.70714
 Alpha virt. eigenvalues --    0.70809   0.70996   0.71782   0.72165   0.72249
 Alpha virt. eigenvalues --    0.72626   0.72708   0.73749   0.73952   0.74381
 Alpha virt. eigenvalues --    0.74553   0.74830   0.75374   0.77337   0.77601
 Alpha virt. eigenvalues --    0.78279   0.78579   0.79341   0.79541   0.79859
 Alpha virt. eigenvalues --    0.80146   0.80600   0.81414   0.82513   0.82602
 Alpha virt. eigenvalues --    0.83378   0.84293   0.84787   0.85393   0.85631
 Alpha virt. eigenvalues --    0.86086   0.86497   0.86927   0.87743   0.88000
 Alpha virt. eigenvalues --    0.88546   0.89007   0.89235   0.89420   0.89965
 Alpha virt. eigenvalues --    0.90311   0.90611   0.90746   0.90958   0.91053
 Alpha virt. eigenvalues --    0.91682   0.91808   0.92179   0.92975   0.93456
 Alpha virt. eigenvalues --    0.93923   0.94150   0.94549   0.95897   0.96716
 Alpha virt. eigenvalues --    0.96886   0.97336   0.97589   0.98031   0.98288
 Alpha virt. eigenvalues --    0.98731   0.99669   0.99989   1.00410   1.00784
 Alpha virt. eigenvalues --    1.01538   1.01873   1.03043   1.03916   1.04678
 Alpha virt. eigenvalues --    1.05004   1.05282   1.05463   1.05988   1.06575
 Alpha virt. eigenvalues --    1.06787   1.07561   1.07778   1.08282   1.08749
 Alpha virt. eigenvalues --    1.09255   1.10129   1.10537   1.10824   1.11174
 Alpha virt. eigenvalues --    1.11314   1.11566   1.12140   1.13347   1.13577
 Alpha virt. eigenvalues --    1.14453   1.14675   1.15040   1.15242   1.15535
 Alpha virt. eigenvalues --    1.15933   1.16436   1.16618   1.17190   1.17939
 Alpha virt. eigenvalues --    1.18218   1.18769   1.19190   1.20221   1.20618
 Alpha virt. eigenvalues --    1.20852   1.20867   1.21557   1.22176   1.22284
 Alpha virt. eigenvalues --    1.22894   1.24006   1.24096   1.24724   1.27210
 Alpha virt. eigenvalues --    1.27780   1.28565   1.29054   1.31205   1.32358
 Alpha virt. eigenvalues --    1.33246   1.34359   1.34455   1.35969   1.36565
 Alpha virt. eigenvalues --    1.37551   1.38888   1.39048   1.39615   1.40688
 Alpha virt. eigenvalues --    1.41641   1.43363   1.43399   1.44244   1.46808
 Alpha virt. eigenvalues --    1.47470   1.47926   1.48468   1.48542   1.48710
 Alpha virt. eigenvalues --    1.49258   1.51418   1.52230   1.52484   1.53117
 Alpha virt. eigenvalues --    1.53225   1.54071   1.54180   1.54704   1.54890
 Alpha virt. eigenvalues --    1.55148   1.55579   1.55706   1.55762   1.56750
 Alpha virt. eigenvalues --    1.57148   1.57629   1.58114   1.59275   1.59577
 Alpha virt. eigenvalues --    1.59633   1.60202   1.60550   1.60828   1.61331
 Alpha virt. eigenvalues --    1.62124   1.62369   1.62666   1.63076   1.63411
 Alpha virt. eigenvalues --    1.64118   1.64284   1.64396   1.64673   1.65145
 Alpha virt. eigenvalues --    1.65620   1.65949   1.67152   1.67652   1.68392
 Alpha virt. eigenvalues --    1.68994   1.69429   1.69734   1.70247   1.71352
 Alpha virt. eigenvalues --    1.71513   1.71753   1.72591   1.72975   1.73356
 Alpha virt. eigenvalues --    1.73388   1.74095   1.74821   1.75033   1.75351
 Alpha virt. eigenvalues --    1.76000   1.76207   1.76883   1.77047   1.77478
 Alpha virt. eigenvalues --    1.77984   1.78851   1.79291   1.79773   1.82023
 Alpha virt. eigenvalues --    1.82481   1.82802   1.83581   1.83834   1.84040
 Alpha virt. eigenvalues --    1.84079   1.84361   1.85705   1.86398   1.86550
 Alpha virt. eigenvalues --    1.86944   1.87064   1.87421   1.87999   1.88612
 Alpha virt. eigenvalues --    1.89067   1.89400   1.90304   1.90656   1.91427
 Alpha virt. eigenvalues --    1.91905   1.92257   1.92982   1.93959   1.95769
 Alpha virt. eigenvalues --    1.96763   1.97206   1.98043   1.98417   1.99208
 Alpha virt. eigenvalues --    2.00215   2.00473   2.00857   2.00908   2.01522
 Alpha virt. eigenvalues --    2.01608   2.01706   2.01925   2.01973   2.02273
 Alpha virt. eigenvalues --    2.02942   2.03338   2.03378   2.04037   2.04254
 Alpha virt. eigenvalues --    2.04748   2.04896   2.05414   2.05523   2.05716
 Alpha virt. eigenvalues --    2.06302   2.07068   2.08108   2.08354   2.09166
 Alpha virt. eigenvalues --    2.09284   2.10172   2.10903   2.11272   2.11457
 Alpha virt. eigenvalues --    2.11995   2.12285   2.12968   2.13302   2.13816
 Alpha virt. eigenvalues --    2.14874   2.16217   2.17072   2.17146   2.17919
 Alpha virt. eigenvalues --    2.18157   2.18228   2.18752   2.20139   2.21093
 Alpha virt. eigenvalues --    2.21312   2.22061   2.23002   2.24577   2.25592
 Alpha virt. eigenvalues --    2.25648   2.26657   2.27092   2.27468   2.28920
 Alpha virt. eigenvalues --    2.30228   2.31900   2.32464   2.35631   2.36303
 Alpha virt. eigenvalues --    2.38113   2.38916   2.39845   2.40884   2.41306
 Alpha virt. eigenvalues --    2.41848   2.42370   2.42864   2.43842   2.44417
 Alpha virt. eigenvalues --    2.45084   2.45688   2.46218   2.46582   2.46791
 Alpha virt. eigenvalues --    2.47559   2.48468   2.48742   2.49437   2.49612
 Alpha virt. eigenvalues --    2.50520   2.51242   2.51324   2.53325   2.54987
 Alpha virt. eigenvalues --    2.55241   2.56647   2.58997   2.59156   2.61778
 Alpha virt. eigenvalues --    2.62484   2.63784   2.65326   2.65989   2.66134
 Alpha virt. eigenvalues --    2.66530   2.66704   2.67559   2.68685   2.69317
 Alpha virt. eigenvalues --    2.70559   2.70618   2.71370   2.71590   2.72443
 Alpha virt. eigenvalues --    2.72496   2.72859   2.73062   2.73208   2.73321
 Alpha virt. eigenvalues --    2.73517   2.73952   2.74356   2.74496   2.74840
 Alpha virt. eigenvalues --    2.74981   2.75351   2.75800   2.76156   2.76535
 Alpha virt. eigenvalues --    2.77202   2.77809   2.78215   2.78507   2.78607
 Alpha virt. eigenvalues --    2.78964   2.79415   2.79898   2.80496   2.80606
 Alpha virt. eigenvalues --    2.81758   2.82098   2.82904   2.83257   2.85470
 Alpha virt. eigenvalues --    2.85568   2.86133   2.86198   2.86983   2.87761
 Alpha virt. eigenvalues --    2.88803   2.89734   2.90377   2.90915   2.91572
 Alpha virt. eigenvalues --    2.92194   2.92958   2.93389   2.94900   2.95339
 Alpha virt. eigenvalues --    2.96082   2.96634   2.97156   2.97705   2.98314
 Alpha virt. eigenvalues --    2.99951   3.00283   3.00830   3.01193   3.02234
 Alpha virt. eigenvalues --    3.02666   3.03324   3.03704   3.03817   3.04142
 Alpha virt. eigenvalues --    3.04307   3.04564   3.05130   3.05563   3.06043
 Alpha virt. eigenvalues --    3.06724   3.09587   3.09773   3.09879   3.10788
 Alpha virt. eigenvalues --    3.11533   3.11664   3.12415   3.15732   3.17545
 Alpha virt. eigenvalues --    3.18438   3.19000   3.20630   3.21398   3.22895
 Alpha virt. eigenvalues --    3.23592   3.23827   3.24358   3.25299   3.28159
 Alpha virt. eigenvalues --    3.28963   3.29746   3.30295   3.31591   3.31767
 Alpha virt. eigenvalues --    3.32704   3.33819   3.35010   3.35846   3.36933
 Alpha virt. eigenvalues --    3.39821   3.41096   3.43681   3.45552   3.45945
 Alpha virt. eigenvalues --    3.46880   3.47565   3.47959   3.49579   3.49768
 Alpha virt. eigenvalues --    3.50659   3.50938   3.52000   3.52385   3.53476
 Alpha virt. eigenvalues --    3.56109   3.57322   3.57854   3.58354   3.60803
 Alpha virt. eigenvalues --    3.61436   3.61634   3.62823   3.63354   3.63852
 Alpha virt. eigenvalues --    3.64420   3.65232   3.68777   3.70150   3.72023
 Alpha virt. eigenvalues --    3.72654   3.72809   3.75554   3.76394   3.77053
 Alpha virt. eigenvalues --    3.77514   3.90532   3.92075   3.97569   3.98410
 Alpha virt. eigenvalues --    3.98893   4.01363   4.03018   4.03902   4.06556
 Alpha virt. eigenvalues --    4.08218   4.09832   4.10508   4.10954   4.11656
 Alpha virt. eigenvalues --    4.12185   4.13394   4.13498   4.17900   4.20829
 Alpha virt. eigenvalues --    4.22663   4.24973   4.25643   4.25983   4.26473
 Alpha virt. eigenvalues --    4.26825   4.28447   4.29692   4.31348   4.32081
 Alpha virt. eigenvalues --    4.33547   4.33672   4.37713   4.54501   4.62703
 Alpha virt. eigenvalues --    4.71126   4.85615   4.98046   4.98430   4.98591
 Alpha virt. eigenvalues --    4.98859   4.99097   5.10761   5.11707   5.12785
 Alpha virt. eigenvalues --    5.23346   5.23364   5.28891   5.47128   5.49296
 Alpha virt. eigenvalues --    5.59464   5.76233   5.88200   5.96053   6.01060
 Alpha virt. eigenvalues --    8.01751  17.59999  17.89808  17.91993  23.81924
 Alpha virt. eigenvalues --   23.90183  23.94209  23.95788  24.02553  24.09786
 Alpha virt. eigenvalues --   24.17526  24.18745  24.18811  24.21321  24.29784
 Alpha virt. eigenvalues --   24.32087  24.32485  24.32970  24.33845  24.34446
 Alpha virt. eigenvalues --   24.34971  24.35016  24.40004  24.42979  24.43417
 Alpha virt. eigenvalues --   24.46684  24.47711  24.47943  24.51242  24.51849
 Alpha virt. eigenvalues --   24.52540  24.53552  24.53913  24.58336  24.59282
 Alpha virt. eigenvalues --   24.60429  24.60592  24.83581  36.16109  36.32285
 Alpha virt. eigenvalues --   50.46705  50.51990  50.53568  50.63415 190.11556
          Condensed to atoms (all electrons):
 Mulliken charges:
               1
     1  C   -0.002631
     2  C   -0.034614
     3  C   -0.107873
     4  C   -0.105414
     5  C   -0.108171
     6  C    0.176723
     7  N   -0.566791
     8  C    0.116791
     9  C   -0.092335
    10  C   -0.091273
    11  C   -0.104354
    12  C   -0.090363
    13  C   -0.091918
    14  C    0.114568
    15  C   -0.091360
    16  C   -0.090871
    17  C   -0.103928
    18  C   -0.090031
    19  C   -0.092345
    20  C   -0.289995
    21  C    0.251480
    22  O   -0.423550
    23  C   -0.018687
    24  C   -0.014854
    25  O   -0.426229
    26  C    0.271091
    27  C   -0.314990
    28  S    0.343820
    29  C    0.031165
    30  C   -0.043820
    31  C   -0.058573
    32  C   -0.102355
    33  C    0.077525
    34  C   -0.223886
    35  C    0.022438
    36  N   -0.277334
    37  C    0.544088
    38  O   -0.343371
    39  O   -0.368453
    40  C   -0.048716
    41  C   -0.118600
    42  H    0.119229
    43  H    0.122163
    44  H    0.108955
    45  H    0.123624
    46  H    0.117487
    47  H    0.104699
    48  H    0.102199
    49  H    0.105105
    50  H    0.118469
    51  H    0.117592
    52  H    0.105170
    53  H    0.102619
    54  H    0.105149
    55  H    0.117746
    56  H    0.128655
    57  H    0.133360
    58  H    0.135434
    59  H    0.128891
    60  H    0.127158
    61  H    0.106285
    62  H    0.145053
    63  H    0.266062
    64  H    0.135058
    65  H    0.111835
 Sum of Mulliken charges =   0.00000
 Mulliken charges with hydrogens summed into heavy atoms:
               1
     1  C   -0.002631
     2  C    0.084615
     3  C    0.014291
     4  C    0.003540
     5  C    0.015452
     6  C    0.176723
     7  N   -0.566791
     8  C    0.116791
     9  C    0.025152
    10  C    0.013426
    11  C   -0.002156
    12  C    0.014741
    13  C    0.026552
    14  C    0.114568
    15  C    0.026231
    16  C    0.014299
    17  C   -0.001310
    18  C    0.015119
    19  C    0.025401
    20  C   -0.289995
    21  C    0.251480
    22  O   -0.423550
    23  C    0.243328
    24  C    0.249471
    25  O   -0.426229
    26  C    0.271091
    27  C   -0.314990
    28  S    0.343820
    29  C    0.031165
    30  C    0.083337
    31  C    0.047713
    32  C   -0.102355
    33  C    0.222578
    34  C   -0.223886
    35  C    0.022438
    36  N   -0.277334
    37  C    0.544088
    38  O   -0.077309
    39  O   -0.368453
    40  C    0.086342
    41  C   -0.006764
 Electronic spatial extent (au):  <R**2>=          43531.4811
 Charge=              0.0000 electrons
 Dipole moment (field-independent basis, Debye):
    X=             -8.8358    Y=              5.2897    Z=             -1.5910  Tot=             10.4204
 Quadrupole moment (field-independent basis, Debye-Ang):
   XX=           -321.7226   YY=           -217.4857   ZZ=           -238.2314
   XY=             21.4039   XZ=             -6.5088   YZ=             -0.6923
 Traceless Quadrupole moment (field-independent basis, Debye-Ang):
   XX=            -62.5760   YY=             41.6609   ZZ=             20.9152
   XY=             21.4039   XZ=             -6.5088   YZ=             -0.6923
 Octapole moment (field-independent basis, Debye-Ang**2):
  XXX=          -1302.8656  YYY=            183.3262  ZZZ=             -9.1086  XYY=            -27.0398
  XXY=             94.0742  XXZ=              0.0287  XZZ=            -24.0259  YZZ=             23.1964
  YYZ=            -64.0411  XYZ=            -28.9145
 Hexadecapole moment (field-independent basis, Debye-Ang**3):
 XXXX=         -64312.0957 YYYY=          -5941.7182 ZZZZ=          -2034.9982 XXXY=            720.2302
 XXXZ=           -321.8528 YYYX=            603.8241 YYYZ=           -114.9281 ZZZX=            -22.6272
 ZZZY=             47.8169 XXYY=          -9362.8070 XXZZ=          -8691.8824 YYZZ=          -1369.7587
 XXYZ=            278.5612 YYXZ=            -77.9684 ZZXY=             13.7802
 N-N= 4.184826330570D+03 E-N=-1.332021154044D+04  KE= 2.110726886807D+03
 1\1\GINC-N077\SP\RBHandHLYP TD-FC\6-311G(d,p)\C34H24N2O4S1\R2652\14-Ju
 l-2021\0\\#N BHandHLYP/6-311G(d,p) TD(NStates=10)\\Name\\0,1\C,0,1.583
 874,-0.556693,-0.16471\C,0,2.616567,-1.501336,-0.011816\C,0,3.942989,-
 1.10998,0.076132\C,0,1.955555,0.799337,-0.216835\C,0,3.278111,1.195779
 ,-0.112784\C,0,4.302513,0.246165,0.0318\N,0,5.653743,0.64486,0.12987\C
 ,0,6.55567,-0.066752,0.971486\C,0,7.83806,-0.397737,0.515342\C,0,8.722
 623,-1.080689,1.344026\C,0,8.340848,-1.457342,2.630424\C,0,7.063338,-1
 .134339,3.084793\C,0,6.178212,-0.43714,2.268997\C,0,6.131217,1.76139,-
 0.614412\C,0,6.956415,2.716346,-0.006713\C,0,7.433142,3.798766,-0.7391
 67\C,0,7.084546,3.955554,-2.079443\C,0,6.258475,3.01007,-2.684947\C,0,
 5.790828,1.91572,-1.964668\C,0,0.185482,-0.96234,-0.25654\C,0,-0.35656
 6,-2.192127,-0.564926\O,0,0.390562,-3.304695,-0.846805\C,0,-0.356626,-
 4.32716,-1.518002\C,0,-1.682531,-4.548965,-0.817823\O,0,-2.477808,-3.3
 53448,-0.866145\C,0,-1.780564,-2.218376,-0.571879\C,0,-2.372844,-1.004
 615,-0.273638\S,0,-1.109661,0.179762,0.039166\C,0,-3.775522,-0.647382,
 -0.180919\C,0,-4.799792,-1.544768,-0.555334\C,0,-6.128149,-1.179214,-0
 .455261\C,0,-6.523026,0.09068,0.016352\C,0,-7.936061,0.366375,0.079998
 \C,0,-8.636656,1.464719,0.478523\C,0,-8.065263,2.673643,0.956033\N,0,-
 7.689718,3.694698,1.356037\C,0,-10.140658,1.395407,0.408212\O,0,-10.81
 3696,2.496137,0.806598\O,0,-10.731511,0.422698,0.021469\C,0,-5.497845,
 0.988283,0.387471\C,0,-4.170822,0.625996,0.290747\H,0,2.374338,-2.5535
 85,0.028009\H,0,4.71425,-1.8622,0.18404\H,0,1.195538,1.562581,-0.34115
 1\H,0,3.52614,2.248973,-0.147733\H,0,8.135862,-0.114688,-0.486946\H,0,
 9.711776,-1.329472,0.975962\H,0,9.030505,-1.99406,3.271253\H,0,6.75613
 4,-1.413,4.086683\H,0,5.191399,-0.176549,2.631921\H,0,7.221172,2.60378
 9,1.037568\H,0,8.070273,4.52997,-0.254258\H,0,7.452466,4.803421,-2.645
 213\H,0,5.986196,3.115491,-3.729222\H,0,5.160487,1.175801,-2.442754\H,
 0,0.25986,-5.225547,-1.485974\H,0,-0.52078,-4.037932,-2.562391\H,0,-1.
 518767,-4.833477,0.22726\H,0,-2.269554,-5.321118,-1.314991\H,0,-4.5412
 52,-2.524766,-0.926188\H,0,-6.894159,-1.888091,-0.751406\H,0,-8.583563
 ,-0.443108,-0.247632\H,0,-10.20914,3.196646,1.089759\H,0,-5.739114,1.9
 75266,0.757291\H,0,-3.417278,1.343373,0.594055\\Version=ES64L-G09RevD.
 01\State=1-A\HF=-2118.0109587\RMSD=7.600e-09\PG=C01 [X(C34H24N2O4S1)]\
 \@


 NATURE REVEALS EVERY SECRET ONCE.
                    - RALPH WALDO EMERSON
 Job cpu time:       0 days  5 hours 17 minutes  3.6 seconds.
 File lengths (MBytes):  RWF=   1930 Int=      0 D2E=      0 Chk=    279 Scr=      1
 Normal termination of Gaussian 09 at Wed Jul 14 19:34:10 2021.
