 Entering Gaussian System, Link 0=g16
 Input=ES.com
 Output=ES.out
 Initial command:
 /usr/local/apps/gaussian/g16-b01-avx2//g16/l1.exe "/tmp/r2532.857990.maple/Gau-13363.inp" -scrdir="/tmp/r2532.857990.maple/"
 Entering Link 1 = /usr/local/apps/gaussian/g16-b01-avx2//g16/l1.exe PID=     13365.
  
 Copyright (c) 1988-2017, Gaussian, Inc.  All Rights Reserved.
  
 This is part of the Gaussian(R) 16 program.  It is based on
 the Gaussian(R) 09 system (copyright 2009, Gaussian, Inc.),
 the Gaussian(R) 03 system (copyright 2003, Gaussian, Inc.),
 the Gaussian(R) 98 system (copyright 1998, Gaussian, Inc.),
 the Gaussian(R) 94 system (copyright 1995, Gaussian, Inc.),
 the Gaussian 92(TM) system (copyright 1992, Gaussian, Inc.),
 the Gaussian 90(TM) system (copyright 1990, Gaussian, Inc.),
 the Gaussian 88(TM) system (copyright 1988, Gaussian, Inc.),
 the Gaussian 86(TM) system (copyright 1986, Carnegie Mellon
 University), and the Gaussian 82(TM) system (copyright 1983,
 Carnegie Mellon University). Gaussian is a federally registered
 trademark of Gaussian, Inc.
  
 This software contains proprietary and confidential information,
 including trade secrets, belonging to Gaussian, Inc.
  
 This software is provided under written license and may be
 used, copied, transmitted, or stored only in accord with that
 written license.
  
 The following legend is applicable only to US Government
 contracts under FAR:
  
                    RESTRICTED RIGHTS LEGEND
  
 Use, reproduction and disclosure by the US Government is
 subject to restrictions as set forth in subparagraphs (a)
 and (c) of the Commercial Computer Software - Restricted
 Rights clause in FAR 52.227-19.
  
 Gaussian, Inc.
 340 Quinnipiac St., Bldg. 40, Wallingford CT 06492
  
  
 ---------------------------------------------------------------
 Warning -- This program may not be used in any manner that
 competes with the business of Gaussian, Inc. or will provide
 assistance to any competitor of Gaussian, Inc.  The licensee
 of this program is prohibited from giving any competitor of
 Gaussian, Inc. access to this program.  By using this program,
 the user acknowledges that Gaussian, Inc. is engaged in the
 business of creating and licensing software in the field of
 computational chemistry and represents and warrants to the
 licensee that it is not a competitor of Gaussian, Inc. and that
 it will not use this program in any manner prohibited above.
 ---------------------------------------------------------------
  

 Cite this work as:
 Gaussian 16, Revision B.01,
 M. J. Frisch, G. W. Trucks, H. B. Schlegel, G. E. Scuseria, 
 M. A. Robb, J. R. Cheeseman, G. Scalmani, V. Barone, 
 G. A. Petersson, H. Nakatsuji, X. Li, M. Caricato, A. V. Marenich, 
 J. Bloino, B. G. Janesko, R. Gomperts, B. Mennucci, H. P. Hratchian, 
 J. V. Ortiz, A. F. Izmaylov, J. L. Sonnenberg, D. Williams-Young, 
 F. Ding, F. Lipparini, F. Egidi, J. Goings, B. Peng, A. Petrone, 
 T. Henderson, D. Ranasinghe, V. G. Zakrzewski, J. Gao, N. Rega, 
 G. Zheng, W. Liang, M. Hada, M. Ehara, K. Toyota, R. Fukuda, 
 J. Hasegawa, M. Ishida, T. Nakajima, Y. Honda, O. Kitao, H. Nakai, 
 T. Vreven, K. Throssell, J. A. Montgomery, Jr., J. E. Peralta, 
 F. Ogliaro, M. J. Bearpark, J. J. Heyd, E. N. Brothers, K. N. Kudin, 
 V. N. Staroverov, T. A. Keith, R. Kobayashi, J. Normand, 
 K. Raghavachari, A. P. Rendell, J. C. Burant, S. S. Iyengar, 
 J. Tomasi, M. Cossi, J. M. Millam, M. Klene, C. Adamo, R. Cammi, 
 J. W. Ochterski, R. L. Martin, K. Morokuma, O. Farkas, 
 J. B. Foresman, and D. J. Fox, Gaussian, Inc., Wallingford CT, 2016.
 
 ******************************************
 Gaussian 16:  ES64L-G16RevB.01 20-Dec-2017
                14-Jun-2021 
 ******************************************
 %mem=8gb
 ---------------------------------------
 #N TD(NStates=10) CAM-B3lYP/aug-cc-pVDZ
 ---------------------------------------
 1/38=1,172=1/1;
 2/12=2,17=6,18=5,40=1/2;
 3/5=16,7=10,11=9,25=1,30=1,74=-40/1,2,3,8;
 4//1;
 5/5=2,38=5/2;
 8/6=1,10=1,108=10/1;
 9/41=10,42=1,70=2/14;
 6/7=2,8=2,9=2,10=2/1;
 99/5=1,9=1/99;
 ----
 Name
 ----
 Symbolic Z-matrix:
 Charge =  0 Multiplicity = 1
 6                     0.93737  -3.07345  -0.18667 
 6                     2.12287  -2.11525  -0.08166 
 6                     1.67932  -0.8041    0.06845 
 6                     0.24933  -0.78717   0.07773 
 16                   -1.03641   0.36103   0.21552 
 6                    -2.23886  -0.92615   0.05558 
 6                    -3.66345  -0.61872   0.08808 
 6                    -4.16707   0.63979  -0.28462 
 6                    -5.52322   0.91821  -0.26005 
 6                    -6.45364  -0.05647   0.14537 
 7                    -7.82802   0.22115   0.17817 
 6                    -8.3007    1.55297   0.38581 
 6                    -9.2542    2.10972  -0.46577 
 1                    -9.62521   1.52842  -1.30142 
 6                    -9.74567   3.39753  -0.25291 
 6                    -9.267     4.15743   0.81702 
 6                    -8.3043    3.60531   1.67269 
 6                    -7.83674   2.31876   1.46616 
 1                    -7.10302   1.89706   2.14277 
 1                    -7.95078   4.20256   2.50434 
 8                    -9.66831   5.42528   1.11427 
 6                    -10.64223   6.03995   0.28244 
 1                    -10.28531   6.13903  -0.74886 
 1                    -11.58568   5.48251   0.28856 
 1                    -10.80803   7.03089   0.70155 
 1                    -10.48879   3.79437  -0.93121 
 6                    -8.79054  -0.816    -0.01459 
 6                    -8.70689  -1.68172  -1.10535 
 6                    -9.64725  -2.69412  -1.29497 
 6                    -10.70787  -2.83637  -0.39654 
 6                    -10.80507  -1.9603    0.69236 
 6                    -9.85575  -0.97086   0.88449 
 1                    -9.93578  -0.30347   1.73416 
 1                    -11.63103  -2.0851    1.38194 
 8                    -11.68672  -3.78038  -0.48918 
 6                    -11.64573  -4.69413  -1.57594 
 1                    -11.72295  -4.17736  -2.53919 
 1                    -10.73103  -5.29752  -1.55983 
 1                    -12.50803  -5.34631  -1.44855 
 1                    -9.54839  -3.34875  -2.15031 
 1                    -7.89486  -1.56908  -1.81389 
 6                    -5.95718  -1.31887   0.52374 
 6                    -4.60013  -1.58717   0.49474 
 1                    -4.25383  -2.55733   0.83193 
 1                    -6.64587  -2.0827    0.86097 
 1                    -5.87359   1.89365  -0.57133 
 1                    -3.48639   1.40814  -0.63469 
 6                    -1.62549  -2.16105  -0.07841 
 6                    -0.21972  -2.0834   -0.06482 
 1                    -2.19197  -3.07258  -0.2147 
 16                    2.97765   0.32206   0.18497 
 6                     4.16218  -0.98809   0.01242 
 6                     3.51621  -2.21773  -0.11396 
 1                     4.06458  -3.14215  -0.24465 
 6                     5.56705  -0.7373    0.04514 
 16                    6.68086  -2.03652   0.37656 
 6                     8.11724  -1.00735   0.24972 
 6                     7.69972   0.29807  -0.01318 
 6                     6.28361   0.45519  -0.1447 
 6                     5.91829   1.77686  -0.54353 
 6                     7.00203   2.58067  -0.71621 
 16                    8.54275   1.78183  -0.38 
 6                     6.92949   3.99545  -1.12736 
 8                     5.9002    4.58649  -1.35272 
 8                     8.15699   4.5424   -1.22147 
 6                     8.20206   5.92907  -1.60434 
 1                     7.75699   6.06463  -2.59108 
 1                     7.66179   6.53969  -0.87974 
 1                     9.25704   6.19099  -1.61758 
 1                     4.91461   2.13592  -0.71661 
 6                     9.37614  -1.65344   0.3541 
 6                     10.62216  -1.15892   0.65376 
 6                     10.83171   0.14424   1.17759 
 7                     10.99525   1.19398   1.63525 
 6                     11.83447  -2.03674   0.64516 
 8                     11.76302  -3.14754  -0.14686 
 1                     11.0612  -3.0442   -0.79945 
 8                     12.81695  -1.81893   1.29612 
 1                     9.33135  -2.73041   0.20604 
 6                     0.91727  -3.80042  -1.54825 
 1                     0.92417  -3.0863   -2.37401 
 1                     1.78943  -4.45222  -1.6488 
 1                     0.02102  -4.42022  -1.63746 
 6                     0.93018  -4.09326   0.97224 
 1                     0.94722  -3.58743   1.93955 
 1                     0.0336   -4.71732   0.9264 
 1                     1.80217  -4.75016   0.91157 
 
 Stoichiometry    C43H32N2O6S4
 Framework group  C1[X(C43H32N2O6S4)]
 Deg. of freedom   255
 Full point group                 C1      NOp   1
 Largest Abelian subgroup         C1      NOp   1
 Largest concise Abelian subgroup C1      NOp   1
                         Standard orientation:                         
 ---------------------------------------------------------------------
 Center     Atomic      Atomic             Coordinates (Angstroms)
 Number     Number       Type             X           Y           Z
 ---------------------------------------------------------------------
      1          6           0       -0.937367   -3.073447    0.186672
      2          6           0       -2.122867   -2.115248    0.081661
      3          6           0       -1.679316   -0.804099   -0.068452
      4          6           0       -0.249325   -0.787165   -0.077728
      5         16           0        1.036410    0.361025   -0.215518
      6          6           0        2.238860   -0.926149   -0.055578
      7          6           0        3.663445   -0.618716   -0.088081
      8          6           0        4.167072    0.639785    0.284618
      9          6           0        5.523215    0.918205    0.260048
     10          6           0        6.453643   -0.056471   -0.145370
     11          7           0        7.828021    0.221147   -0.178165
     12          6           0        8.300703    1.552970   -0.385806
     13          6           0        9.254197    2.109715    0.465769
     14          1           0        9.625209    1.528423    1.301420
     15          6           0        9.745666    3.397532    0.252908
     16          6           0        9.267005    4.157431   -0.817016
     17          6           0        8.304305    3.605310   -1.672687
     18          6           0        7.836741    2.318757   -1.466163
     19          1           0        7.103023    1.897060   -2.142771
     20          1           0        7.950783    4.202556   -2.504337
     21          8           0        9.668305    5.425275   -1.114274
     22          6           0       10.642233    6.039950   -0.282435
     23          1           0       10.285306    6.139026    0.748855
     24          1           0       11.585682    5.482513   -0.288556
     25          1           0       10.808033    7.030888   -0.701547
     26          1           0       10.488787    3.794368    0.931210
     27          6           0        8.790537   -0.816003    0.014590
     28          6           0        8.706892   -1.681719    1.105345
     29          6           0        9.647255   -2.694117    1.294967
     30          6           0       10.707870   -2.836370    0.396541
     31          6           0       10.805065   -1.960304   -0.692355
     32          6           0        9.855745   -0.970857   -0.884487
     33          1           0        9.935782   -0.303465   -1.734163
     34          1           0       11.631034   -2.085101   -1.381938
     35          8           0       11.686719   -3.780380    0.489179
     36          6           0       11.645727   -4.694126    1.575939
     37          1           0       11.722954   -4.177359    2.539191
     38          1           0       10.731032   -5.297522    1.559834
     39          1           0       12.508032   -5.346312    1.448547
     40          1           0        9.548391   -3.348753    2.150306
     41          1           0        7.894861   -1.569078    1.813892
     42          6           0        5.957184   -1.318867   -0.523743
     43          6           0        4.600126   -1.587169   -0.494737
     44          1           0        4.253834   -2.557328   -0.831925
     45          1           0        6.645870   -2.082701   -0.860973
     46          1           0        5.873589    1.893646    0.571326
     47          1           0        3.486389    1.408137    0.634689
     48          6           0        1.625489   -2.161053    0.078410
     49          6           0        0.219718   -2.083396    0.064821
     50          1           0        2.191968   -3.072577    0.214700
     51         16           0       -2.977646    0.322058   -0.184968
     52          6           0       -4.162184   -0.988087   -0.012416
     53          6           0       -3.516210   -2.217730    0.113955
     54          1           0       -4.064580   -3.142153    0.244654
     55          6           0       -5.567054   -0.737299   -0.045138
     56         16           0       -6.680862   -2.036515   -0.376555
     57          6           0       -8.117241   -1.007346   -0.249715
     58          6           0       -7.699721    0.298072    0.013178
     59          6           0       -6.283611    0.455188    0.144695
     60          6           0       -5.918293    1.776862    0.543528
     61          6           0       -7.002029    2.580666    0.716207
     62         16           0       -8.542754    1.781825    0.380001
     63          6           0       -6.929485    3.995445    1.127359
     64          8           0       -5.900200    4.586493    1.352715
     65          8           0       -8.156994    4.542399    1.221469
     66          6           0       -8.202058    5.929065    1.604344
     67          1           0       -7.756993    6.064628    2.591080
     68          1           0       -7.661788    6.539691    0.879736
     69          1           0       -9.257040    6.190991    1.617581
     70          1           0       -4.914608    2.135918    0.716605
     71          6           0       -9.376140   -1.653440   -0.354095
     72          6           0      -10.622163   -1.158916   -0.653764
     73          6           0      -10.831709    0.144243   -1.177590
     74          7           0      -10.995247    1.193976   -1.635252
     75          6           0      -11.834467   -2.036742   -0.645164
     76          8           0      -11.763023   -3.147544    0.146859
     77          1           0      -11.061204   -3.044195    0.799445
     78          8           0      -12.816952   -1.818928   -1.296115
     79          1           0       -9.331350   -2.730405   -0.206037
     80          6           0       -0.917271   -3.800420    1.548251
     81          1           0       -0.924169   -3.086302    2.374015
     82          1           0       -1.789433   -4.452223    1.648799
     83          1           0       -0.021019   -4.420217    1.637464
     84          6           0       -0.930182   -4.093261   -0.972236
     85          1           0       -0.947217   -3.587426   -1.939546
     86          1           0       -0.033600   -4.717316   -0.926403
     87          1           0       -1.802170   -4.750158   -0.911574
 ---------------------------------------------------------------------
 Rotational constants (GHZ):           0.0816788           0.0106340           0.0095919
 Standard basis: Aug-CC-pVDZ (5D, 7F)
 There are  1679 symmetry adapted cartesian basis functions of A   symmetry.
 There are  1569 symmetry adapted basis functions of A   symmetry.
  1569 basis functions,  2869 primitive gaussians,  1679 cartesian basis functions
   208 alpha electrons      208 beta electrons
       nuclear repulsion energy      7134.6351005501 Hartrees.
 NAtoms=   87 NActive=   87 NUniq=   87 SFac= 1.00D+00 NAtFMM=   60 NAOKFM=T Big=T
 Integral buffers will be    131072 words long.
 Raffenetti 1 integral format.
 Two-electron integral symmetry is turned on.
 One-electron integrals computed using PRISM.
 NBasis=  1569 RedAO= T EigKep=  1.04D-06  NBF=  1569
 NBsUse=  1559 1.00D-06 EigRej=  9.70D-07 NBFU=  1559
 ExpMin= 2.97D-02 ExpMax= 1.11D+05 ExpMxC= 1.07D+03 IAcc=3 IRadAn=         5 AccDes= 0.00D+00
 Harris functional with IExCor=20419 and IRadAn=       5 diagonalized for initial guess.
 HarFok:  IExCor=20419 AccDes= 0.00D+00 IRadAn=         5 IDoV= 1 UseB2=F ITyADJ=14
 ICtDFT=  3500011 ScaDFX=  1.000000  1.000000  1.000000  1.000000
 FoFCou: FMM=F IPFlag=           0 FMFlag=      100000 FMFlg1=        2001
         NFxFlg=           0 DoJE=T BraDBF=F KetDBF=T FulRan=T
         wScrn=  0.000000 ICntrl=       500 IOpCl=  0 I1Cent=   200000004 NGrid=           0
         NMat0=    1 NMatS0=      1 NMatT0=    0 NMatD0=    1 NMtDS0=    0 NMtDT0=    0
 Petite list used in FoFCou.
 Requested convergence on RMS density matrix=1.00D-08 within 128 cycles.
 Requested convergence on MAX density matrix=1.00D-06.
 Requested convergence on             energy=1.00D-06.
 No special actions if energy rises.
 Restarting incremental Fock formation.
 SCF Done:  E(RCAM-B3LYP) =  -3810.56577754     A.U. after   31 cycles
            NFock= 31  Conv=0.22D-08     -V/T= 2.0043
 DoSCS=F DFT=T ScalE2(SS,OS)=  1.000000  1.000000
 ExpMin= 2.97D-02 ExpMax= 1.11D+05 ExpMxC= 1.07D+03 IAcc=3 IRadAn=         5 AccDes= 0.00D+00
 HarFok:  IExCor=  205 AccDes= 0.00D+00 IRadAn=         5 IDoV=-2 UseB2=F ITyADJ=14
 ICtDFT= 12500011 ScaDFX=  1.000000  1.000000  1.000000  1.000000
 GSVD:  LWork=       -5609 too small for GESVD, short by       26270 words or       26270 for optimal perf.
 Range of M.O.s used for correlation:    72  1559
 NBasis=  1569 NAE=   208 NBE=   208 NFC=    71 NFV=     0
 NROrb=   1488 NOA=   137 NOB=   137 NVA=  1351 NVB=  1351

 **** Warning!!: The largest alpha MO coefficient is  0.10484117D+03

 Orbital symmetries:
       Occupied  (A) (A) (A) (A) (A) (A) (A) (A) (A) (A) (A) (A)
                 (A) (A) (A) (A) (A) (A) (A) (A) (A) (A) (A) (A)
                 (A) (A) (A) (A) (A) (A) (A) (A) (A) (A) (A) (A)
                 (A) (A) (A) (A) (A) (A) (A) (A) (A) (A) (A) (A)
                 (A) (A) (A) (A) (A) (A) (A) (A) (A) (A) (A) (A)
                 (A) (A) (A) (A) (A) (A) (A) (A) (A) (A) (A) (A)
                 (A) (A) (A) (A) (A) (A) (A) (A) (A) (A) (A) (A)
                 (A) (A) (A) (A) (A) (A) (A) (A) (A) (A) (A) (A)
                 (A) (A) (A) (A) (A) (A) (A) (A) (A) (A) (A) (A)
                 (A) (A) (A) (A) (A) (A) (A) (A) (A) (A) (A) (A)
                 (A) (A) (A) (A) (A) (A) (A) (A) (A) (A) (A) (A)
                 (A) (A) (A) (A) (A) (A) (A) (A) (A) (A) (A) (A)
                 (A) (A) (A) (A) (A) (A) (A) (A) (A) (A) (A) (A)
                 (A) (A) (A) (A) (A) (A) (A) (A) (A) (A) (A) (A)
                 (A) (A) (A) (A) (A) (A) (A) (A) (A) (A) (A) (A)
                 (A) (A) (A) (A) (A) (A) (A) (A) (A) (A) (A) (A)
                 (A) (A) (A) (A) (A) (A) (A) (A) (A) (A) (A) (A)
                 (A) (A) (A) (A)
       Virtual   (A) (A) (A) (A) (A) (A) (A) (A) (A) (A) (A) (A)
                 (A) (A) (A) (A) (A) (A) (A) (A) (A) (A) (A) (A)
                 (A) (A) (A) (A) (A) (A) (A) (A) (A) (A) (A) (A)
                 (A) (A) (A) (A) (A) (A) (A) (A) (A) (A) (A) (A)
                 (A) (A) (A) (A) (A) (A) (A) (A) (A) (A) (A) (A)
                 (A) (A) (A) (A) (A) (A) (A) (A) (A) (A) (A) (A)
                 (A) (A) (A) (A) (A) (A) (A) (A) (A) (A) (A) (A)
                 (A) (A) (A) (A) (A) (A) (A) (A) (A) (A) (A) (A)
                 (A) (A) (A) (A) (A) (A) (A) (A) (A) (A) (A) (A)
                 (A) (A) (A) (A) (A) (A) (A) (A) (A) (A) (A) (A)
                 (A) (A) (A) (A) (A) (A) (A) (A) (A) (A) (A) (A)
                 (A) (A) (A) (A) (A) (A) (A) (A) (A) (A) (A) (A)
                 (A) (A) (A) (A) (A) (A) (A) (A) (A) (A) (A) (A)
                 (A) (A) (A) (A) (A) (A) (A) (A) (A) (A) (A) (A)
                 (A) (A) (A) (A) (A) (A) (A) (A) (A) (A) (A) (A)
                 (A) (A) (A) (A) (A) (A) (A) (A) (A) (A) (A) (A)
                 (A) (A) (A) (A) (A) (A) (A) (A) (A) (A) (A) (A)
                 (A) (A) (A) (A) (A) (A) (A) (A) (A) (A) (A) (A)
                 (A) (A) (A) (A) (A) (A) (A) (A) (A) (A) (A) (A)
                 (A) (A) (A) (A) (A) (A) (A) (A) (A) (A) (A) (A)
                 (A) (A) (A) (A) (A) (A) (A) (A) (A) (A) (A) (A)
                 (A) (A) (A) (A) (A) (A) (A) (A) (A) (A) (A) (A)
                 (A) (A) (A) (A) (A) (A) (A) (A) (A) (A) (A) (A)
                 (A) (A) (A) (A) (A) (A) (A) (A) (A) (A) (A) (A)
                 (A) (A) (A) (A) (A) (A) (A) (A) (A) (A) (A) (A)
                 (A) (A) (A) (A) (A) (A) (A) (A) (A) (A) (A) (A)
                 (A) (A) (A) (A) (A) (A) (A) (A) (A) (A) (A) (A)
                 (A) (A) (A) (A) (A) (A) (A) (A) (A) (A) (A) (A)
                 (A) (A) (A) (A) (A) (A) (A) (A) (A) (A) (A) (A)
                 (A) (A) (A) (A) (A) (A) (A) (A) (A) (A) (A) (A)
                 (A) (A) (A) (A) (A) (A) (A) (A) (A) (A) (A) (A)
                 (A) (A) (A) (A) (A) (A) (A) (A) (A) (A) (A) (A)
                 (A) (A) (A) (A) (A) (A) (A) (A) (A) (A) (A) (A)
                 (A) (A) (A) (A) (A) (A) (A) (A) (A) (A) (A) (A)
                 (A) (A) (A) (A) (A) (A) (A) (A) (A) (A) (A) (A)
                 (A) (A) (A) (A) (A) (A) (A) (A) (A) (A) (A) (A)
                 (A) (A) (A) (A) (A) (A) (A) (A) (A) (A) (A) (A)
                 (A) (A) (A) (A) (A) (A) (A) (A) (A) (A) (A) (A)
                 (A) (A) (A) (A) (A) (A) (A) (A) (A) (A) (A) (A)
                 (A) (A) (A) (A) (A) (A) (A) (A) (A) (A) (A) (A)
                 (A) (A) (A) (A) (A) (A) (A) (A) (A) (A) (A) (A)
                 (A) (A) (A) (A) (A) (A) (A) (A) (A) (A) (A) (A)
                 (A) (A) (A) (A) (A) (A) (A) (A) (A) (A) (A) (A)
                 (A) (A) (A) (A) (A) (A) (A) (A) (A) (A) (A) (A)
                 (A) (A) (A) (A) (A) (A) (A) (A) (A) (A) (A) (A)
                 (A) (A) (A) (A) (A) (A) (A) (A) (A) (A) (A) (A)
                 (A) (A) (A) (A) (A) (A) (A) (A) (A) (A) (A) (A)
                 (A) (A) (A) (A) (A) (A) (A) (A) (A) (A) (A) (A)
                 (A) (A) (A) (A) (A) (A) (A) (A) (A) (A) (A) (A)
                 (A) (A) (A) (A) (A) (A) (A) (A) (A) (A) (A) (A)
                 (A) (A) (A) (A) (A) (A) (A) (A) (A) (A) (A) (A)
                 (A) (A) (A) (A) (A) (A) (A) (A) (A) (A) (A) (A)
                 (A) (A) (A) (A) (A) (A) (A) (A) (A) (A) (A) (A)
                 (A) (A) (A) (A) (A) (A) (A) (A) (A) (A) (A) (A)
                 (A) (A) (A) (A) (A) (A) (A) (A) (A) (A) (A) (A)
                 (A) (A) (A) (A) (A) (A) (A) (A) (A) (A) (A) (A)
                 (A) (A) (A) (A) (A) (A) (A) (A) (A) (A) (A) (A)
                 (A) (A) (A) (A) (A) (A) (A) (A) (A) (A) (A) (A)
                 (A) (A) (A) (A) (A) (A) (A) (A) (A) (A) (A) (A)
                 (A) (A) (A) (A) (A) (A) (A) (A) (A) (A) (A) (A)
                 (A) (A) (A) (A) (A) (A) (A) (A) (A) (A) (A) (A)
                 (A) (A) (A) (A) (A) (A) (A) (A) (A) (A) (A) (A)
                 (A) (A) (A) (A) (A) (A) (A) (A) (A) (A) (A) (A)
                 (A) (A) (A) (A) (A) (A) (A) (A) (A) (A) (A) (A)
                 (A) (A) (A) (A) (A) (A) (A) (A) (A) (A) (A) (A)
                 (A) (A) (A) (A) (A) (A) (A) (A) (A) (A) (A) (A)
                 (A) (A) (A) (A) (A) (A) (A) (A) (A) (A) (A) (A)
                 (A) (A) (A) (A) (A) (A) (A) (A) (A) (A) (A) (A)
                 (A) (A) (A) (A) (A) (A) (A) (A) (A) (A) (A) (A)
                 (A) (A) (A) (A) (A) (A) (A) (A) (A) (A) (A) (A)
                 (A) (A) (A) (A) (A) (A) (A) (A) (A) (A) (A) (A)
                 (A) (A) (A) (A) (A) (A) (A) (A) (A) (A) (A) (A)
                 (A) (A) (A) (A) (A) (A) (A) (A) (A) (A) (A) (A)
                 (A) (A) (A) (A) (A) (A) (A) (A) (A) (A) (A) (A)
                 (A) (A) (A) (A) (A) (A) (A) (A) (A) (A) (A) (A)
                 (A) (A) (A) (A) (A) (A) (A) (A) (A) (A) (A) (A)
                 (A) (A) (A) (A) (A) (A) (A) (A) (A) (A) (A) (A)
                 (A) (A) (A) (A) (A) (A) (A) (A) (A) (A) (A) (A)
                 (A) (A) (A) (A) (A) (A) (A) (A) (A) (A) (A) (A)
                 (A) (A) (A) (A) (A) (A) (A) (A) (A) (A) (A) (A)
                 (A) (A) (A) (A) (A) (A) (A) (A) (A) (A) (A) (A)
                 (A) (A) (A) (A) (A) (A) (A) (A) (A) (A) (A) (A)
                 (A) (A) (A) (A) (A) (A) (A) (A) (A) (A) (A) (A)
                 (A) (A) (A) (A) (A) (A) (A) (A) (A) (A) (A) (A)
                 (A) (A) (A) (A) (A) (A) (A) (A) (A) (A) (A) (A)
                 (A) (A) (A) (A) (A) (A) (A) (A) (A) (A) (A) (A)
                 (A) (A) (A) (A) (A) (A) (A) (A) (A) (A) (A) (A)
                 (A) (A) (A) (A) (A) (A) (A) (A) (A) (A) (A) (A)
                 (A) (A) (A) (A) (A) (A) (A) (A) (A) (A) (A) (A)
                 (A) (A) (A) (A) (A) (A) (A) (A) (A) (A) (A) (A)
                 (A) (A) (A) (A) (A) (A) (A) (A) (A) (A) (A) (A)
                 (A) (A) (A) (A) (A) (A) (A) (A) (A) (A) (A) (A)
                 (A) (A) (A) (A) (A) (A) (A) (A) (A) (A) (A) (A)
                 (A) (A) (A) (A) (A) (A) (A) (A) (A) (A) (A) (A)
                 (A) (A) (A) (A) (A) (A) (A) (A) (A) (A) (A) (A)
                 (A) (A) (A) (A) (A) (A) (A) (A) (A) (A) (A) (A)
                 (A) (A) (A) (A) (A) (A) (A) (A) (A) (A) (A) (A)
                 (A) (A) (A) (A) (A) (A) (A) (A) (A) (A) (A) (A)
                 (A) (A) (A) (A) (A) (A) (A) (A) (A) (A) (A) (A)
                 (A) (A) (A) (A) (A) (A) (A) (A) (A) (A) (A) (A)
                 (A) (A) (A) (A) (A) (A) (A) (A) (A) (A) (A) (A)
                 (A) (A) (A) (A) (A) (A) (A) (A) (A) (A) (A) (A)
                 (A) (A) (A) (A) (A) (A) (A) (A) (A) (A) (A) (A)
                 (A) (A) (A) (A) (A) (A) (A) (A) (A) (A) (A) (A)
                 (A) (A) (A) (A) (A) (A) (A) (A) (A) (A) (A) (A)
                 (A) (A) (A) (A) (A) (A) (A) (A) (A) (A) (A) (A)
                 (A) (A) (A) (A) (A) (A) (A) (A) (A) (A) (A) (A)
                 (A) (A) (A) (A) (A) (A) (A) (A) (A) (A) (A) (A)
                 (A) (A) (A) (A) (A) (A) (A) (A) (A) (A) (A) (A)
                 (A) (A) (A) (A) (A) (A) (A) (A) (A) (A) (A) (A)
                 (A) (A) (A) (A) (A) (A) (A) (A) (A) (A) (A) (A)
                 (A) (A) (A) (A) (A) (A) (A) (A) (A) (A) (A) (A)
                 (A) (A) (A) (A) (A) (A) (A)
    40 initial guesses have been made.
 Convergence on wavefunction:    0.001000000000000
 Iteration     1 Dimension    40 NMult     0 NNew     40
 CISAX will form    40 AO SS matrices at one time.
 New state      4 was old state      5
 New state      5 was old state      4
 New state      6 was old state     11
 New state      7 was old state      6
 New state      8 was old state     15
 New state     10 was old state     28
 Iteration     2 Dimension    60 NMult    40 NNew     20
 New state      7 was old state      8
 New state      8 was old state      7
 New state      9 was old state     10
 New state     10 was old state      9
 Iteration     3 Dimension    80 NMult    60 NNew     20
 Iteration     4 Dimension   100 NMult    80 NNew     20
 Iteration     5 Dimension   120 NMult   100 NNew     20
 Iteration     6 Dimension   136 NMult   120 NNew     16
 Iteration     7 Dimension   148 NMult   136 NNew     12
 Iteration     8 Dimension   154 NMult   148 NNew      6
 Iteration     9 Dimension   160 NMult   154 NNew      6
 Iteration    10 Dimension   164 NMult   160 NNew      4
 Iteration    11 Dimension   168 NMult   164 NNew      4
 Iteration    12 Dimension   172 NMult   168 NNew      4
 Iteration    13 Dimension   176 NMult   172 NNew      4
 Iteration    14 Dimension   180 NMult   176 NNew      4
 Iteration    15 Dimension   184 NMult   180 NNew      4
 ***********************************************************************
 Excited states from <AA,BB:AA,BB> singles matrix:
 ***********************************************************************
 
 Ground to excited state transition densities written to RWF  633
 Ground to excited state transition electric dipole moments (Au):
       state          X           Y           Z        Dip. S.      Osc.
         1        -5.7301      0.2284     -0.1645     32.9133      1.8242
         2         0.6934      0.0911     -0.2847      0.5702      0.0440
         3         0.0378     -0.7866     -0.3891      0.7716      0.0647
         4        -1.9853     -0.8897     -0.2253      4.7836      0.4293
         5         0.0927     -0.2994     -0.1246      0.1138      0.0105
         6        -0.1737     -0.0797      0.4588      0.2470      0.0235
         7        -0.1133     -1.1363     -0.3652      1.4373      0.1444
         8         0.9268      0.0784      0.0219      0.8656      0.0897
         9         0.1525      0.7899      0.0206      0.6477      0.0701
        10         0.2249     -0.5839      0.0801      0.3980      0.0432
 Ground to excited state transition velocity dipole moments (Au):
       state          X           Y           Z        Dip. S.      Osc.
         1         0.4726     -0.0178      0.0138      0.2239      1.7954
         2        -0.0795     -0.0091      0.0331      0.0075      0.0432
         3        -0.0062      0.0973      0.0485      0.0119      0.0629
         4         0.2644      0.1175      0.0301      0.0846      0.4190
         5        -0.0124      0.0418      0.0175      0.0022      0.0107
         6         0.0246      0.0110     -0.0652      0.0050      0.0233
         7         0.0172      0.1700      0.0547      0.0322      0.1423
         8        -0.1423     -0.0124     -0.0033      0.0204      0.0875
         9        -0.0243     -0.1274     -0.0034      0.0168      0.0691
        10        -0.0363      0.0937     -0.0119      0.0102      0.0418
 Ground to excited state transition magnetic dipole moments (Au):
       state          X           Y           Z
         1        -0.0099      0.1970      1.3160
         2        -0.1152      0.5541     -0.8331
         3        -0.1276      0.6212     -1.0985
         4        -0.0159      0.2123     -0.0050
         5         0.0064      0.1897     -0.7036
         6        -0.0499      1.2369      1.0983
         7        -0.1005      0.6521     -2.0154
         8        -0.1175      0.1974     -0.2481
         9        -0.2043      0.1370     -1.7295
        10         0.0720      0.4796      1.8099
 Ground to excited state transition velocity quadrupole moments (Au):
       state          XX          YY          ZZ          XY          XZ          YZ
         1        -4.4306      0.0206     -0.0248     -0.2117     -0.3942     -0.1290
         2        -7.9492     -0.0780     -0.0660     -0.8906     -0.6801      0.1012
         3        -3.4353      0.5502     -0.0136     -1.6977     -0.9034      0.2060
         4         3.0699      0.6656      0.0373     -0.8224     -0.4596      0.0486
         5         1.1813      0.1684     -0.0014     -0.1409     -0.1870     -0.0396
         6         0.3807      0.0777      0.0309      0.1429     -1.0800     -0.0308
         7        -0.3899      0.5866      0.0014     -2.5028     -0.8080      0.2130
         8        -3.9625     -0.3621     -0.0481     -0.2818     -0.1730      0.2353
         9        -0.2912     -0.4436      0.0466     -2.7689     -0.2141     -0.0761
        10        -0.3161      0.1951     -0.0611      2.5391     -0.4777      0.1287
 <0|del|b> * <b|rxdel|0> + <0|del|b> * <b|delr+rdel|0>
 Rotatory Strengths (R) in cgs (10**-40 erg-esu-cm/Gauss)
       state          XX          YY          ZZ    R(velocity)    E-M Angle
         1        19.8150   -189.7658    254.3548     28.1347       89.10
         2      -208.5236      9.2218     56.0701    -47.7439      105.59
         3        36.0176     80.3105    -71.3807     14.9825       86.68
         4       142.0361     87.2717   -121.1798     36.0427       70.59
         5         2.4132    -24.2396     -1.1762     -7.6675       97.53
         6      -137.7792   -159.5565      3.1118    -98.0746      120.51
         7         2.2018     67.1160    -74.8376     -1.8399       90.18
         8        -6.4395    -38.3658    113.4835     22.8927       71.78
         9       -63.7223      7.0882     28.1780     -9.4854       91.65
        10        81.8840      3.1044      4.8435     29.9440       83.73
 1/2[<0|r|b>*<b|rxdel|0> + (<0|rxdel|b>*<b|r|0>)*]
 Rotatory Strengths (R) in cgs (10**-40 erg-esu-cm/Gauss)
       state          XX          YY          ZZ     R(length)
         1       -40.1101    -31.8301    153.0590     27.0396
         2        56.5085    -35.7095   -167.7006    -48.9672
         3         3.4073    345.5430   -302.2333     15.5724
         4       -22.3804    133.5395     -0.7943     36.7883
         5        -0.4173     40.1560    -62.0164     -7.4259
         6        -6.1242     69.6945   -356.3781    -97.6026
         7        -8.0542    523.9829   -520.4759     -1.5157
         8        77.0298    -10.9470      3.8477     23.3102
         9        22.0339    -76.5359     25.1951     -9.7690
        10       -11.4458    198.0456   -102.4571     28.0476
  1/2[<0|del|b>*<b|r|0> + (<0|r|b>*<b|del|0>)*] (Au)
       state          X           Y           Z        Dip. S.   Osc.(frdel)
         1        -2.7083     -0.0041     -0.0023      2.7146      1.8097
         2        -0.0551     -0.0008     -0.0094      0.0654      0.0436
         3        -0.0002     -0.0766     -0.0189      0.0957      0.0638
         4        -0.5249     -0.1046     -0.0068      0.6362      0.4241
         5        -0.0011     -0.0125     -0.0022      0.0158      0.0106
         6        -0.0043     -0.0009     -0.0299      0.0351      0.0234
         7        -0.0020     -0.1931     -0.0200      0.2151      0.1434
         8        -0.1318     -0.0010     -0.0001      0.1329      0.0886
         9        -0.0037     -0.1006     -0.0001      0.1044      0.0696
        10        -0.0082     -0.0547     -0.0010      0.0638      0.0425

 Excitation energies and oscillator strengths:
 
 Excited State   1:      Singlet-A      2.2622 eV  548.06 nm  f=1.8242  <S**2>=0.000
     207 -> 209        0.34773
     208 -> 209        0.58545
 This state for optimization and/or second-order correction.
 Total Energy, E(TD-HF/TD-DFT) =  -3810.48264160    
 Copying the excited state density for this state as the 1-particle RhoCI density.
 
 Excited State   2:      Singlet-A      3.1489 eV  393.74 nm  f=0.0440  <S**2>=0.000
     206 -> 209        0.32516
     207 -> 209        0.48873
     208 -> 209       -0.24753
     208 -> 210        0.19009
     208 -> 211       -0.18677
 
 Excited State   3:      Singlet-A      3.4215 eV  362.36 nm  f=0.0647  <S**2>=0.000
     206 -> 210        0.15600
     206 -> 211        0.10470
     207 -> 209       -0.15862
     207 -> 210        0.41105
     208 -> 209        0.17678
     208 -> 210        0.46501
 
 Excited State   4:      Singlet-A      3.6633 eV  338.45 nm  f=0.4293  <S**2>=0.000
     206 -> 209        0.11672
     206 -> 210        0.13428
     207 -> 210        0.16582
     207 -> 211        0.13154
     207 -> 217       -0.10046
     208 -> 209       -0.14904
     208 -> 211        0.57570
     208 -> 217        0.10783
 
 Excited State   5:      Singlet-A      3.7517 eV  330.48 nm  f=0.0105  <S**2>=0.000
     203 -> 209        0.12068
     204 -> 209       -0.27371
     206 -> 209        0.49551
     207 -> 209       -0.26364
     207 -> 211       -0.15414
     208 -> 209        0.13910
 
 Excited State   6:      Singlet-A      3.8760 eV  319.88 nm  f=0.0235  <S**2>=0.000
     207 -> 212        0.13592
     207 -> 213       -0.21307
     207 -> 214       -0.14265
     207 -> 215        0.12520
     208 -> 212       -0.23994
     208 -> 213        0.39945
     208 -> 214        0.27004
     208 -> 215       -0.22826
 
 Excited State   7:      Singlet-A      4.1011 eV  302.32 nm  f=0.1444  <S**2>=0.000
     202 -> 209       -0.29916
     203 -> 209        0.58341
     206 -> 209       -0.11130
     208 -> 210        0.10947
 
 Excited State   8:      Singlet-A      4.2300 eV  293.11 nm  f=0.0897  <S**2>=0.000
     206 -> 209        0.10282
     207 -> 210       -0.17772
     207 -> 211        0.42077
     208 -> 209        0.10568
     208 -> 214        0.14041
     208 -> 217       -0.35832
 
 Excited State   9:      Singlet-A      4.4198 eV  280.52 nm  f=0.0701  <S**2>=0.000
     198 -> 209        0.11725
     207 -> 218       -0.11204
     207 -> 222       -0.15422
     207 -> 225        0.10048
     208 -> 212       -0.17490
     208 -> 214       -0.17294
     208 -> 218        0.20116
     208 -> 221       -0.12606
     208 -> 222        0.18761
     208 -> 225       -0.18238
     208 -> 227       -0.11947
     208 -> 228        0.14378
     208 -> 229        0.11630
     208 -> 230       -0.12087
 
 Excited State  10:      Singlet-A      4.4352 eV  279.55 nm  f=0.0432  <S**2>=0.000
     198 -> 209        0.28374
     200 -> 209        0.10734
     204 -> 209       -0.12839
     206 -> 209       -0.10110
     206 -> 210        0.16521
     207 -> 210        0.12514
     207 -> 214       -0.14750
     207 -> 222        0.15547
     208 -> 210       -0.15745
     208 -> 218       -0.16409
     208 -> 220       -0.10048
     208 -> 222       -0.20082
     208 -> 225        0.12968
 SavETr:  write IOETrn=   770 NScale= 10 NData=  16 NLR=1 NState=   10 LETran=     190.

 **********************************************************************

            Population analysis using the SCF Density.

 **********************************************************************

 Orbital symmetries:
       Occupied  (A) (A) (A) (A) (A) (A) (A) (A) (A) (A) (A) (A)
                 (A) (A) (A) (A) (A) (A) (A) (A) (A) (A) (A) (A)
                 (A) (A) (A) (A) (A) (A) (A) (A) (A) (A) (A) (A)
                 (A) (A) (A) (A) (A) (A) (A) (A) (A) (A) (A) (A)
                 (A) (A) (A) (A) (A) (A) (A) (A) (A) (A) (A) (A)
                 (A) (A) (A) (A) (A) (A) (A) (A) (A) (A) (A) (A)
                 (A) (A) (A) (A) (A) (A) (A) (A) (A) (A) (A) (A)
                 (A) (A) (A) (A) (A) (A) (A) (A) (A) (A) (A) (A)
                 (A) (A) (A) (A) (A) (A) (A) (A) (A) (A) (A) (A)
                 (A) (A) (A) (A) (A) (A) (A) (A) (A) (A) (A) (A)
                 (A) (A) (A) (A) (A) (A) (A) (A) (A) (A) (A) (A)
                 (A) (A) (A) (A) (A) (A) (A) (A) (A) (A) (A) (A)
                 (A) (A) (A) (A) (A) (A) (A) (A) (A) (A) (A) (A)
                 (A) (A) (A) (A) (A) (A) (A) (A) (A) (A) (A) (A)
                 (A) (A) (A) (A) (A) (A) (A) (A) (A) (A) (A) (A)
                 (A) (A) (A) (A) (A) (A) (A) (A) (A) (A) (A) (A)
                 (A) (A) (A) (A) (A) (A) (A) (A) (A) (A) (A) (A)
                 (A) (A) (A) (A)
       Virtual   (A) (A) (A) (A) (A) (A) (A) (A) (A) (A) (A) (A)
                 (A) (A) (A) (A) (A) (A) (A) (A) (A) (A) (A) (A)
                 (A) (A) (A) (A) (A) (A) (A) (A) (A) (A) (A) (A)
                 (A) (A) (A) (A) (A) (A) (A) (A) (A) (A) (A) (A)
                 (A) (A) (A) (A) (A) (A) (A) (A) (A) (A) (A) (A)
                 (A) (A) (A) (A) (A) (A) (A) (A) (A) (A) (A) (A)
                 (A) (A) (A) (A) (A) (A) (A) (A) (A) (A) (A) (A)
                 (A) (A) (A) (A) (A) (A) (A) (A) (A) (A) (A) (A)
                 (A) (A) (A) (A) (A) (A) (A) (A) (A) (A) (A) (A)
                 (A) (A) (A) (A) (A) (A) (A) (A) (A) (A) (A) (A)
                 (A) (A) (A) (A) (A) (A) (A) (A) (A) (A) (A) (A)
                 (A) (A) (A) (A) (A) (A) (A) (A) (A) (A) (A) (A)
                 (A) (A) (A) (A) (A) (A) (A) (A) (A) (A) (A) (A)
                 (A) (A) (A) (A) (A) (A) (A) (A) (A) (A) (A) (A)
                 (A) (A) (A) (A) (A) (A) (A) (A) (A) (A) (A) (A)
                 (A) (A) (A) (A) (A) (A) (A) (A) (A) (A) (A) (A)
                 (A) (A) (A) (A) (A) (A) (A) (A) (A) (A) (A) (A)
                 (A) (A) (A) (A) (A) (A) (A) (A) (A) (A) (A) (A)
                 (A) (A) (A) (A) (A) (A) (A) (A) (A) (A) (A) (A)
                 (A) (A) (A) (A) (A) (A) (A) (A) (A) (A) (A) (A)
                 (A) (A) (A) (A) (A) (A) (A) (A) (A) (A) (A) (A)
                 (A) (A) (A) (A) (A) (A) (A) (A) (A) (A) (A) (A)
                 (A) (A) (A) (A) (A) (A) (A) (A) (A) (A) (A) (A)
                 (A) (A) (A) (A) (A) (A) (A) (A) (A) (A) (A) (A)
                 (A) (A) (A) (A) (A) (A) (A) (A) (A) (A) (A) (A)
                 (A) (A) (A) (A) (A) (A) (A) (A) (A) (A) (A) (A)
                 (A) (A) (A) (A) (A) (A) (A) (A) (A) (A) (A) (A)
                 (A) (A) (A) (A) (A) (A) (A) (A) (A) (A) (A) (A)
                 (A) (A) (A) (A) (A) (A) (A) (A) (A) (A) (A) (A)
                 (A) (A) (A) (A) (A) (A) (A) (A) (A) (A) (A) (A)
                 (A) (A) (A) (A) (A) (A) (A) (A) (A) (A) (A) (A)
                 (A) (A) (A) (A) (A) (A) (A) (A) (A) (A) (A) (A)
                 (A) (A) (A) (A) (A) (A) (A) (A) (A) (A) (A) (A)
                 (A) (A) (A) (A) (A) (A) (A) (A) (A) (A) (A) (A)
                 (A) (A) (A) (A) (A) (A) (A) (A) (A) (A) (A) (A)
                 (A) (A) (A) (A) (A) (A) (A) (A) (A) (A) (A) (A)
                 (A) (A) (A) (A) (A) (A) (A) (A) (A) (A) (A) (A)
                 (A) (A) (A) (A) (A) (A) (A) (A) (A) (A) (A) (A)
                 (A) (A) (A) (A) (A) (A) (A) (A) (A) (A) (A) (A)
                 (A) (A) (A) (A) (A) (A) (A) (A) (A) (A) (A) (A)
                 (A) (A) (A) (A) (A) (A) (A) (A) (A) (A) (A) (A)
                 (A) (A) (A) (A) (A) (A) (A) (A) (A) (A) (A) (A)
                 (A) (A) (A) (A) (A) (A) (A) (A) (A) (A) (A) (A)
                 (A) (A) (A) (A) (A) (A) (A) (A) (A) (A) (A) (A)
                 (A) (A) (A) (A) (A) (A) (A) (A) (A) (A) (A) (A)
                 (A) (A) (A) (A) (A) (A) (A) (A) (A) (A) (A) (A)
                 (A) (A) (A) (A) (A) (A) (A) (A) (A) (A) (A) (A)
                 (A) (A) (A) (A) (A) (A) (A) (A) (A) (A) (A) (A)
                 (A) (A) (A) (A) (A) (A) (A) (A) (A) (A) (A) (A)
                 (A) (A) (A) (A) (A) (A) (A) (A) (A) (A) (A) (A)
                 (A) (A) (A) (A) (A) (A) (A) (A) (A) (A) (A) (A)
                 (A) (A) (A) (A) (A) (A) (A) (A) (A) (A) (A) (A)
                 (A) (A) (A) (A) (A) (A) (A) (A) (A) (A) (A) (A)
                 (A) (A) (A) (A) (A) (A) (A) (A) (A) (A) (A) (A)
                 (A) (A) (A) (A) (A) (A) (A) (A) (A) (A) (A) (A)
                 (A) (A) (A) (A) (A) (A) (A) (A) (A) (A) (A) (A)
                 (A) (A) (A) (A) (A) (A) (A) (A) (A) (A) (A) (A)
                 (A) (A) (A) (A) (A) (A) (A) (A) (A) (A) (A) (A)
                 (A) (A) (A) (A) (A) (A) (A) (A) (A) (A) (A) (A)
                 (A) (A) (A) (A) (A) (A) (A) (A) (A) (A) (A) (A)
                 (A) (A) (A) (A) (A) (A) (A) (A) (A) (A) (A) (A)
                 (A) (A) (A) (A) (A) (A) (A) (A) (A) (A) (A) (A)
                 (A) (A) (A) (A) (A) (A) (A) (A) (A) (A) (A) (A)
                 (A) (A) (A) (A) (A) (A) (A) (A) (A) (A) (A) (A)
                 (A) (A) (A) (A) (A) (A) (A) (A) (A) (A) (A) (A)
                 (A) (A) (A) (A) (A) (A) (A) (A) (A) (A) (A) (A)
                 (A) (A) (A) (A) (A) (A) (A) (A) (A) (A) (A) (A)
                 (A) (A) (A) (A) (A) (A) (A) (A) (A) (A) (A) (A)
                 (A) (A) (A) (A) (A) (A) (A) (A) (A) (A) (A) (A)
                 (A) (A) (A) (A) (A) (A) (A) (A) (A) (A) (A) (A)
                 (A) (A) (A) (A) (A) (A) (A) (A) (A) (A) (A) (A)
                 (A) (A) (A) (A) (A) (A) (A) (A) (A) (A) (A) (A)
                 (A) (A) (A) (A) (A) (A) (A) (A) (A) (A) (A) (A)
                 (A) (A) (A) (A) (A) (A) (A) (A) (A) (A) (A) (A)
                 (A) (A) (A) (A) (A) (A) (A) (A) (A) (A) (A) (A)
                 (A) (A) (A) (A) (A) (A) (A) (A) (A) (A) (A) (A)
                 (A) (A) (A) (A) (A) (A) (A) (A) (A) (A) (A) (A)
                 (A) (A) (A) (A) (A) (A) (A) (A) (A) (A) (A) (A)
                 (A) (A) (A) (A) (A) (A) (A) (A) (A) (A) (A) (A)
                 (A) (A) (A) (A) (A) (A) (A) (A) (A) (A) (A) (A)
                 (A) (A) (A) (A) (A) (A) (A) (A) (A) (A) (A) (A)
                 (A) (A) (A) (A) (A) (A) (A) (A) (A) (A) (A) (A)
                 (A) (A) (A) (A) (A) (A) (A) (A) (A) (A) (A) (A)
                 (A) (A) (A) (A) (A) (A) (A) (A) (A) (A) (A) (A)
                 (A) (A) (A) (A) (A) (A) (A) (A) (A) (A) (A) (A)
                 (A) (A) (A) (A) (A) (A) (A) (A) (A) (A) (A) (A)
                 (A) (A) (A) (A) (A) (A) (A) (A) (A) (A) (A) (A)
                 (A) (A) (A) (A) (A) (A) (A) (A) (A) (A) (A) (A)
                 (A) (A) (A) (A) (A) (A) (A) (A) (A) (A) (A) (A)
                 (A) (A) (A) (A) (A) (A) (A) (A) (A) (A) (A) (A)
                 (A) (A) (A) (A) (A) (A) (A) (A) (A) (A) (A) (A)
                 (A) (A) (A) (A) (A) (A) (A) (A) (A) (A) (A) (A)
                 (A) (A) (A) (A) (A) (A) (A) (A) (A) (A) (A) (A)
                 (A) (A) (A) (A) (A) (A) (A) (A) (A) (A) (A) (A)
                 (A) (A) (A) (A) (A) (A) (A) (A) (A) (A) (A) (A)
                 (A) (A) (A) (A) (A) (A) (A) (A) (A) (A) (A) (A)
                 (A) (A) (A) (A) (A) (A) (A) (A) (A) (A) (A) (A)
                 (A) (A) (A) (A) (A) (A) (A) (A) (A) (A) (A) (A)
                 (A) (A) (A) (A) (A) (A) (A) (A) (A) (A) (A) (A)
                 (A) (A) (A) (A) (A) (A) (A) (A) (A) (A) (A) (A)
                 (A) (A) (A) (A) (A) (A) (A) (A) (A) (A) (A) (A)
                 (A) (A) (A) (A) (A) (A) (A) (A) (A) (A) (A) (A)
                 (A) (A) (A) (A) (A) (A) (A) (A) (A) (A) (A) (A)
                 (A) (A) (A) (A) (A) (A) (A) (A) (A) (A) (A) (A)
                 (A) (A) (A) (A) (A) (A) (A) (A) (A) (A) (A) (A)
                 (A) (A) (A) (A) (A) (A) (A) (A) (A) (A) (A) (A)
                 (A) (A) (A) (A) (A) (A) (A) (A) (A) (A) (A) (A)
                 (A) (A) (A) (A) (A) (A) (A) (A) (A) (A) (A) (A)
                 (A) (A) (A) (A) (A) (A) (A) (A) (A) (A) (A) (A)
                 (A) (A) (A) (A) (A) (A) (A) (A) (A) (A) (A) (A)
                 (A) (A) (A) (A) (A) (A) (A) (A) (A) (A) (A) (A)
                 (A) (A) (A) (A) (A) (A) (A) (A) (A) (A) (A) (A)
                 (A) (A) (A) (A) (A) (A) (A)
 The electronic state is 1-A.
 Alpha  occ. eigenvalues --  -89.01807 -89.01484 -89.00413 -89.00265 -19.27979
 Alpha  occ. eigenvalues --  -19.27640 -19.26204 -19.26059 -19.22197 -19.21499
 Alpha  occ. eigenvalues --  -14.44031 -14.40920 -10.41019 -10.40873 -10.34714
 Alpha  occ. eigenvalues --  -10.33299 -10.33175 -10.33158 -10.33071 -10.32734
 Alpha  occ. eigenvalues --  -10.32579 -10.32298 -10.32264 -10.32187 -10.32125
 Alpha  occ. eigenvalues --  -10.32027 -10.31742 -10.31717 -10.31499 -10.30794
 Alpha  occ. eigenvalues --  -10.30746 -10.30618 -10.30526 -10.30429 -10.30281
 Alpha  occ. eigenvalues --  -10.29817 -10.29727 -10.28608 -10.28397 -10.28383
 Alpha  occ. eigenvalues --  -10.27932 -10.27684 -10.27629 -10.27570 -10.27443
 Alpha  occ. eigenvalues --  -10.27440 -10.27421 -10.27393 -10.27280 -10.27060
 Alpha  occ. eigenvalues --  -10.27032 -10.27020 -10.26932 -10.26911 -10.26846
 Alpha  occ. eigenvalues --   -8.07855  -8.07458  -8.06372  -8.06257  -6.04308
 Alpha  occ. eigenvalues --   -6.03909  -6.03907  -6.03539  -6.03529  -6.03145
 Alpha  occ. eigenvalues --   -6.02854  -6.02705  -6.02448  -6.02327  -6.01999
 Alpha  occ. eigenvalues --   -6.01945  -1.20638  -1.19700  -1.16305  -1.16165
 Alpha  occ. eigenvalues --   -1.11702  -1.11584  -1.06080  -1.02876  -1.01917
 Alpha  occ. eigenvalues --   -0.99469  -0.98433  -0.96335  -0.95755  -0.95507
 Alpha  occ. eigenvalues --   -0.94124  -0.93274  -0.92245  -0.88744  -0.87365
 Alpha  occ. eigenvalues --   -0.85970  -0.85954  -0.85437  -0.84734  -0.84641
 Alpha  occ. eigenvalues --   -0.84329  -0.83933  -0.83026  -0.82746  -0.82127
 Alpha  occ. eigenvalues --   -0.81095  -0.79282  -0.79236  -0.78952  -0.77451
 Alpha  occ. eigenvalues --   -0.75001  -0.72942  -0.71761  -0.71615  -0.70978
 Alpha  occ. eigenvalues --   -0.70910  -0.70303  -0.69993  -0.68674  -0.68208
 Alpha  occ. eigenvalues --   -0.66534  -0.65820  -0.64667  -0.64520  -0.63677
 Alpha  occ. eigenvalues --   -0.63397  -0.62790  -0.62616  -0.62409  -0.61396
 Alpha  occ. eigenvalues --   -0.60667  -0.59647  -0.58942  -0.57718  -0.57530
 Alpha  occ. eigenvalues --   -0.57056  -0.56919  -0.56390  -0.56062  -0.55324
 Alpha  occ. eigenvalues --   -0.55169  -0.55154  -0.54736  -0.54222  -0.53805
 Alpha  occ. eigenvalues --   -0.53213  -0.53015  -0.52972  -0.52790  -0.52421
 Alpha  occ. eigenvalues --   -0.51970  -0.51759  -0.51509  -0.50817  -0.50692
 Alpha  occ. eigenvalues --   -0.50533  -0.50332  -0.50183  -0.49956  -0.49424
 Alpha  occ. eigenvalues --   -0.49372  -0.48789  -0.48672  -0.48223  -0.48051
 Alpha  occ. eigenvalues --   -0.47851  -0.47612  -0.47258  -0.46745  -0.46491
 Alpha  occ. eigenvalues --   -0.46335  -0.46233  -0.46050  -0.45636  -0.45313
 Alpha  occ. eigenvalues --   -0.44986  -0.44540  -0.44269  -0.44032  -0.43853
 Alpha  occ. eigenvalues --   -0.43607  -0.43398  -0.43145  -0.42921  -0.42369
 Alpha  occ. eigenvalues --   -0.41916  -0.41551  -0.41227  -0.41021  -0.40569
 Alpha  occ. eigenvalues --   -0.40428  -0.40308  -0.40231  -0.40070  -0.39639
 Alpha  occ. eigenvalues --   -0.39468  -0.38437  -0.37737  -0.36203  -0.35649
 Alpha  occ. eigenvalues --   -0.35004  -0.33843  -0.33432  -0.33132  -0.32452
 Alpha  occ. eigenvalues --   -0.32401  -0.32135  -0.32048  -0.31182  -0.29641
 Alpha  occ. eigenvalues --   -0.28356  -0.25040  -0.22789
 Alpha virt. eigenvalues --   -0.08523  -0.04248  -0.02448  -0.00185  -0.00043
 Alpha virt. eigenvalues --    0.00210   0.00489   0.00695   0.00996   0.01352
 Alpha virt. eigenvalues --    0.01440   0.01677   0.01831   0.01959   0.02197
 Alpha virt. eigenvalues --    0.02290   0.02379   0.02486   0.02548   0.02624
 Alpha virt. eigenvalues --    0.02727   0.02858   0.03039   0.03295   0.03397
 Alpha virt. eigenvalues --    0.03589   0.03780   0.03977   0.04079   0.04251
 Alpha virt. eigenvalues --    0.04342   0.04376   0.04419   0.04702   0.04847
 Alpha virt. eigenvalues --    0.04875   0.05032   0.05189   0.05473   0.05646
 Alpha virt. eigenvalues --    0.05827   0.05868   0.06137   0.06243   0.06570
 Alpha virt. eigenvalues --    0.06722   0.06767   0.06883   0.06903   0.07170
 Alpha virt. eigenvalues --    0.07272   0.07500   0.07541   0.07731   0.08032
 Alpha virt. eigenvalues --    0.08106   0.08208   0.08351   0.08445   0.08561
 Alpha virt. eigenvalues --    0.08713   0.08932   0.08982   0.09354   0.09467
 Alpha virt. eigenvalues --    0.09587   0.09736   0.09881   0.09963   0.10122
 Alpha virt. eigenvalues --    0.10338   0.10383   0.10557   0.10606   0.10719
 Alpha virt. eigenvalues --    0.10780   0.10844   0.10997   0.11087   0.11142
 Alpha virt. eigenvalues --    0.11285   0.11360   0.11421   0.11525   0.11602
 Alpha virt. eigenvalues --    0.11682   0.11772   0.11842   0.11901   0.12054
 Alpha virt. eigenvalues --    0.12097   0.12176   0.12329   0.12452   0.12599
 Alpha virt. eigenvalues --    0.12656   0.12746   0.12837   0.13019   0.13138
 Alpha virt. eigenvalues --    0.13210   0.13441   0.13474   0.13500   0.13701
 Alpha virt. eigenvalues --    0.13772   0.13862   0.14040   0.14183   0.14236
 Alpha virt. eigenvalues --    0.14402   0.14533   0.14583   0.14719   0.14793
 Alpha virt. eigenvalues --    0.14970   0.15000   0.15241   0.15328   0.15492
 Alpha virt. eigenvalues --    0.15597   0.15644   0.15766   0.15962   0.16164
 Alpha virt. eigenvalues --    0.16244   0.16413   0.16454   0.16539   0.16696
 Alpha virt. eigenvalues --    0.16727   0.16864   0.16951   0.17026   0.17158
 Alpha virt. eigenvalues --    0.17189   0.17390   0.17474   0.17633   0.17751
 Alpha virt. eigenvalues --    0.17840   0.17973   0.18175   0.18397   0.18563
 Alpha virt. eigenvalues --    0.18677   0.18699   0.18897   0.19063   0.19255
 Alpha virt. eigenvalues --    0.19335   0.19408   0.19564   0.19843   0.19941
 Alpha virt. eigenvalues --    0.20053   0.20129   0.20282   0.20339   0.20580
 Alpha virt. eigenvalues --    0.20704   0.20795   0.20950   0.21111   0.21287
 Alpha virt. eigenvalues --    0.21425   0.21648   0.21750   0.21857   0.21964
 Alpha virt. eigenvalues --    0.22017   0.22122   0.22281   0.22490   0.22612
 Alpha virt. eigenvalues --    0.22710   0.23053   0.23127   0.23294   0.23596
 Alpha virt. eigenvalues --    0.23651   0.23754   0.23943   0.23978   0.24011
 Alpha virt. eigenvalues --    0.24307   0.24398   0.24490   0.24527   0.24603
 Alpha virt. eigenvalues --    0.24612   0.24827   0.24838   0.25011   0.25109
 Alpha virt. eigenvalues --    0.25282   0.25338   0.25542   0.25774   0.25796
 Alpha virt. eigenvalues --    0.25867   0.25941   0.26167   0.26278   0.26328
 Alpha virt. eigenvalues --    0.26408   0.26486   0.26648   0.26812   0.26910
 Alpha virt. eigenvalues --    0.27061   0.27101   0.27329   0.27478   0.27539
 Alpha virt. eigenvalues --    0.27752   0.27811   0.27856   0.28035   0.28172
 Alpha virt. eigenvalues --    0.28221   0.28368   0.28427   0.28568   0.28726
 Alpha virt. eigenvalues --    0.28894   0.28903   0.29032   0.29048   0.29232
 Alpha virt. eigenvalues --    0.29342   0.29464   0.29539   0.29583   0.29599
 Alpha virt. eigenvalues --    0.29724   0.29758   0.29916   0.30077   0.30116
 Alpha virt. eigenvalues --    0.30322   0.30470   0.30553   0.30614   0.30780
 Alpha virt. eigenvalues --    0.30864   0.30927   0.30973   0.31246   0.31306
 Alpha virt. eigenvalues --    0.31460   0.31523   0.31581   0.31659   0.31770
 Alpha virt. eigenvalues --    0.31822   0.31866   0.31953   0.32028   0.32205
 Alpha virt. eigenvalues --    0.32272   0.32374   0.32557   0.32670   0.32709
 Alpha virt. eigenvalues --    0.32815   0.33199   0.33312   0.33369   0.33480
 Alpha virt. eigenvalues --    0.33522   0.33774   0.33885   0.34002   0.34142
 Alpha virt. eigenvalues --    0.34183   0.34272   0.34323   0.34463   0.34506
 Alpha virt. eigenvalues --    0.34660   0.34764   0.34833   0.34955   0.34994
 Alpha virt. eigenvalues --    0.35101   0.35457   0.35520   0.35599   0.35738
 Alpha virt. eigenvalues --    0.35819   0.35871   0.36018   0.36127   0.36280
 Alpha virt. eigenvalues --    0.36348   0.36699   0.36860   0.36968   0.37163
 Alpha virt. eigenvalues --    0.37226   0.37380   0.37501   0.37645   0.37835
 Alpha virt. eigenvalues --    0.37852   0.38015   0.38086   0.38395   0.38450
 Alpha virt. eigenvalues --    0.38516   0.38674   0.38747   0.38778   0.39118
 Alpha virt. eigenvalues --    0.39219   0.39326   0.39474   0.39676   0.39762
 Alpha virt. eigenvalues --    0.39883   0.39926   0.40091   0.40278   0.40438
 Alpha virt. eigenvalues --    0.40573   0.40675   0.40863   0.40936   0.41111
 Alpha virt. eigenvalues --    0.41168   0.41378   0.41566   0.41625   0.41794
 Alpha virt. eigenvalues --    0.41919   0.41999   0.42138   0.42205   0.42431
 Alpha virt. eigenvalues --    0.42574   0.42584   0.42688   0.42757   0.43164
 Alpha virt. eigenvalues --    0.43178   0.43477   0.43654   0.43722   0.43969
 Alpha virt. eigenvalues --    0.44044   0.44234   0.44303   0.44586   0.44665
 Alpha virt. eigenvalues --    0.44808   0.44944   0.45067   0.45395   0.45566
 Alpha virt. eigenvalues --    0.45849   0.45930   0.46233   0.46323   0.46334
 Alpha virt. eigenvalues --    0.46618   0.46721   0.46875   0.47001   0.47165
 Alpha virt. eigenvalues --    0.47413   0.47618   0.47682   0.47800   0.48135
 Alpha virt. eigenvalues --    0.48265   0.48386   0.48482   0.48647   0.48748
 Alpha virt. eigenvalues --    0.49142   0.49309   0.49558   0.49620   0.49862
 Alpha virt. eigenvalues --    0.49951   0.50251   0.50415   0.50579   0.50694
 Alpha virt. eigenvalues --    0.50840   0.50983   0.51194   0.51222   0.51397
 Alpha virt. eigenvalues --    0.51446   0.51571   0.51831   0.51917   0.52115
 Alpha virt. eigenvalues --    0.52182   0.52494   0.52728   0.52828   0.53081
 Alpha virt. eigenvalues --    0.53405   0.53478   0.53566   0.53663   0.53807
 Alpha virt. eigenvalues --    0.54072   0.54128   0.54263   0.54622   0.54672
 Alpha virt. eigenvalues --    0.54790   0.54912   0.55024   0.55274   0.55485
 Alpha virt. eigenvalues --    0.55685   0.55870   0.56000   0.56142   0.56208
 Alpha virt. eigenvalues --    0.56497   0.56614   0.56695   0.56747   0.56848
 Alpha virt. eigenvalues --    0.57154   0.57326   0.57454   0.57573   0.57835
 Alpha virt. eigenvalues --    0.57978   0.58129   0.58165   0.58292   0.58618
 Alpha virt. eigenvalues --    0.58685   0.58842   0.59003   0.59055   0.59232
 Alpha virt. eigenvalues --    0.59380   0.59543   0.59590   0.59653   0.59883
 Alpha virt. eigenvalues --    0.59993   0.60203   0.60254   0.60343   0.60431
 Alpha virt. eigenvalues --    0.60488   0.60653   0.60748   0.60862   0.60948
 Alpha virt. eigenvalues --    0.61090   0.61205   0.61332   0.61515   0.61664
 Alpha virt. eigenvalues --    0.61876   0.62033   0.62221   0.62313   0.62345
 Alpha virt. eigenvalues --    0.62533   0.62675   0.62707   0.63118   0.63274
 Alpha virt. eigenvalues --    0.63416   0.63569   0.63633   0.63766   0.63828
 Alpha virt. eigenvalues --    0.64052   0.64338   0.64541   0.64590   0.64694
 Alpha virt. eigenvalues --    0.64789   0.64992   0.65166   0.65218   0.65502
 Alpha virt. eigenvalues --    0.65608   0.65742   0.65952   0.66000   0.66216
 Alpha virt. eigenvalues --    0.66439   0.66740   0.66842   0.66909   0.67049
 Alpha virt. eigenvalues --    0.67098   0.67282   0.67341   0.67544   0.67659
 Alpha virt. eigenvalues --    0.67882   0.68023   0.68106   0.68258   0.68294
 Alpha virt. eigenvalues --    0.68480   0.68667   0.68788   0.68834   0.69094
 Alpha virt. eigenvalues --    0.69171   0.69326   0.69537   0.69755   0.69797
 Alpha virt. eigenvalues --    0.69921   0.70092   0.70214   0.70252   0.70499
 Alpha virt. eigenvalues --    0.70595   0.70715   0.70889   0.71010   0.71155
 Alpha virt. eigenvalues --    0.71291   0.71351   0.71416   0.71673   0.71710
 Alpha virt. eigenvalues --    0.71877   0.71942   0.72300   0.72378   0.72432
 Alpha virt. eigenvalues --    0.72549   0.72690   0.72896   0.72947   0.73105
 Alpha virt. eigenvalues --    0.73173   0.73296   0.73440   0.73611   0.73772
 Alpha virt. eigenvalues --    0.73804   0.73889   0.74140   0.74263   0.74491
 Alpha virt. eigenvalues --    0.74627   0.74771   0.75003   0.75127   0.75299
 Alpha virt. eigenvalues --    0.75471   0.75532   0.75730   0.75853   0.76097
 Alpha virt. eigenvalues --    0.76375   0.76534   0.76803   0.76896   0.77133
 Alpha virt. eigenvalues --    0.77249   0.77520   0.77641   0.77984   0.78126
 Alpha virt. eigenvalues --    0.78271   0.78547   0.78836   0.79035   0.79367
 Alpha virt. eigenvalues --    0.79506   0.79709   0.79842   0.80042   0.80226
 Alpha virt. eigenvalues --    0.80427   0.80530   0.80795   0.80870   0.81057
 Alpha virt. eigenvalues --    0.81215   0.81299   0.81707   0.81773   0.81944
 Alpha virt. eigenvalues --    0.82046   0.82218   0.82235   0.82501   0.82580
 Alpha virt. eigenvalues --    0.82761   0.82888   0.83006   0.83260   0.83429
 Alpha virt. eigenvalues --    0.83530   0.83631   0.83893   0.84082   0.84294
 Alpha virt. eigenvalues --    0.84490   0.84564   0.84994   0.85113   0.85335
 Alpha virt. eigenvalues --    0.85621   0.85739   0.85816   0.86038   0.86135
 Alpha virt. eigenvalues --    0.86324   0.86366   0.86648   0.86906   0.86930
 Alpha virt. eigenvalues --    0.87147   0.87298   0.87434   0.87498   0.87944
 Alpha virt. eigenvalues --    0.88039   0.88306   0.88528   0.88626   0.88682
 Alpha virt. eigenvalues --    0.89121   0.89206   0.89493   0.89622   0.89759
 Alpha virt. eigenvalues --    0.90133   0.90238   0.90336   0.90510   0.90735
 Alpha virt. eigenvalues --    0.90958   0.91191   0.91348   0.91437   0.91554
 Alpha virt. eigenvalues --    0.91700   0.91871   0.92025   0.92289   0.92601
 Alpha virt. eigenvalues --    0.92857   0.92893   0.92963   0.93178   0.93525
 Alpha virt. eigenvalues --    0.93902   0.94154   0.94261   0.94498   0.94614
 Alpha virt. eigenvalues --    0.94838   0.95096   0.95186   0.95495   0.95790
 Alpha virt. eigenvalues --    0.96079   0.96458   0.96848   0.96929   0.97236
 Alpha virt. eigenvalues --    0.97485   0.97625   0.97840   0.98043   0.98211
 Alpha virt. eigenvalues --    0.98475   0.98821   0.99014   0.99244   0.99277
 Alpha virt. eigenvalues --    0.99632   1.00159   1.00217   1.00529   1.00760
 Alpha virt. eigenvalues --    1.00967   1.01165   1.01385   1.01800   1.02246
 Alpha virt. eigenvalues --    1.02424   1.02716   1.02815   1.02897   1.03372
 Alpha virt. eigenvalues --    1.03722   1.03916   1.04231   1.04537   1.04748
 Alpha virt. eigenvalues --    1.04788   1.05156   1.05253   1.05519   1.05739
 Alpha virt. eigenvalues --    1.05860   1.06003   1.06234   1.06463   1.06593
 Alpha virt. eigenvalues --    1.06904   1.07149   1.07409   1.07587   1.08148
 Alpha virt. eigenvalues --    1.08284   1.08614   1.08758   1.09042   1.09236
 Alpha virt. eigenvalues --    1.09565   1.09726   1.09798   1.10278   1.10813
 Alpha virt. eigenvalues --    1.11058   1.11224   1.11849   1.11979   1.12171
 Alpha virt. eigenvalues --    1.12452   1.12740   1.12806   1.13255   1.13368
 Alpha virt. eigenvalues --    1.13516   1.13830   1.14303   1.14731   1.14895
 Alpha virt. eigenvalues --    1.14971   1.15397   1.15561   1.15829   1.15970
 Alpha virt. eigenvalues --    1.16309   1.16439   1.16857   1.17043   1.17321
 Alpha virt. eigenvalues --    1.17456   1.17570   1.17857   1.18475   1.18625
 Alpha virt. eigenvalues --    1.18896   1.19279   1.19513   1.19779   1.19972
 Alpha virt. eigenvalues --    1.20234   1.20664   1.21289   1.21317   1.21469
 Alpha virt. eigenvalues --    1.21565   1.21800   1.22120   1.22882   1.22913
 Alpha virt. eigenvalues --    1.23533   1.23830   1.24059   1.24284   1.24718
 Alpha virt. eigenvalues --    1.24981   1.25205   1.25560   1.26098   1.26507
 Alpha virt. eigenvalues --    1.26697   1.26852   1.27012   1.27705   1.28100
 Alpha virt. eigenvalues --    1.28389   1.28717   1.28796   1.29191   1.30081
 Alpha virt. eigenvalues --    1.30692   1.30718   1.31120   1.31374   1.31804
 Alpha virt. eigenvalues --    1.32557   1.32626   1.33107   1.33519   1.33654
 Alpha virt. eigenvalues --    1.34084   1.34348   1.34804   1.34903   1.35271
 Alpha virt. eigenvalues --    1.35551   1.35861   1.36560   1.36598   1.36847
 Alpha virt. eigenvalues --    1.36986   1.37043   1.37510   1.37887   1.37999
 Alpha virt. eigenvalues --    1.38102   1.38277   1.38797   1.39277   1.39618
 Alpha virt. eigenvalues --    1.39669   1.39917   1.40169   1.40537   1.40704
 Alpha virt. eigenvalues --    1.41022   1.41565   1.41858   1.42081   1.42373
 Alpha virt. eigenvalues --    1.42571   1.43087   1.43454   1.43790   1.44264
 Alpha virt. eigenvalues --    1.44287   1.44626   1.44810   1.45030   1.45330
 Alpha virt. eigenvalues --    1.45812   1.45999   1.46335   1.46648   1.46873
 Alpha virt. eigenvalues --    1.47121   1.47523   1.47805   1.47940   1.48367
 Alpha virt. eigenvalues --    1.48602   1.48946   1.49148   1.49512   1.49653
 Alpha virt. eigenvalues --    1.50037   1.50374   1.50585   1.50595   1.51010
 Alpha virt. eigenvalues --    1.51121   1.51483   1.51841   1.52225   1.52479
 Alpha virt. eigenvalues --    1.52738   1.53092   1.53246   1.53496   1.53763
 Alpha virt. eigenvalues --    1.53980   1.54178   1.54325   1.54579   1.54808
 Alpha virt. eigenvalues --    1.54936   1.55181   1.55413   1.55534   1.55578
 Alpha virt. eigenvalues --    1.55816   1.56097   1.56396   1.56637   1.56780
 Alpha virt. eigenvalues --    1.57032   1.57177   1.57244   1.57785   1.57995
 Alpha virt. eigenvalues --    1.58160   1.58236   1.58424   1.58609   1.58850
 Alpha virt. eigenvalues --    1.59092   1.59329   1.59496   1.59840   1.60011
 Alpha virt. eigenvalues --    1.60248   1.60434   1.60631   1.60861   1.61171
 Alpha virt. eigenvalues --    1.61362   1.61610   1.61752   1.62011   1.62366
 Alpha virt. eigenvalues --    1.62496   1.62799   1.62884   1.62957   1.63226
 Alpha virt. eigenvalues --    1.63514   1.63867   1.63997   1.64199   1.64382
 Alpha virt. eigenvalues --    1.64698   1.64948   1.65301   1.65606   1.65708
 Alpha virt. eigenvalues --    1.65996   1.66238   1.66264   1.66837   1.66993
 Alpha virt. eigenvalues --    1.67249   1.67595   1.67948   1.68047   1.68298
 Alpha virt. eigenvalues --    1.68604   1.68720   1.68896   1.68944   1.69605
 Alpha virt. eigenvalues --    1.69761   1.69905   1.69960   1.70057   1.70541
 Alpha virt. eigenvalues --    1.70669   1.71019   1.71135   1.71226   1.71276
 Alpha virt. eigenvalues --    1.71438   1.71790   1.71937   1.72149   1.72251
 Alpha virt. eigenvalues --    1.72554   1.72633   1.72806   1.73138   1.73250
 Alpha virt. eigenvalues --    1.73840   1.74004   1.74173   1.74680   1.74802
 Alpha virt. eigenvalues --    1.75055   1.75122   1.75256   1.75758   1.75977
 Alpha virt. eigenvalues --    1.76850   1.76992   1.77215   1.77453   1.77888
 Alpha virt. eigenvalues --    1.78009   1.78276   1.78615   1.78727   1.79027
 Alpha virt. eigenvalues --    1.79262   1.79747   1.80099   1.80313   1.80630
 Alpha virt. eigenvalues --    1.80991   1.81073   1.81246   1.81351   1.81526
 Alpha virt. eigenvalues --    1.81909   1.82560   1.82901   1.82957   1.83613
 Alpha virt. eigenvalues --    1.84032   1.84128   1.84582   1.84725   1.85334
 Alpha virt. eigenvalues --    1.85990   1.86331   1.86358   1.86740   1.86809
 Alpha virt. eigenvalues --    1.87107   1.87381   1.87900   1.88254   1.88416
 Alpha virt. eigenvalues --    1.88853   1.89071   1.89586   1.89743   1.90623
 Alpha virt. eigenvalues --    1.90986   1.91037   1.91170   1.91589   1.92071
 Alpha virt. eigenvalues --    1.92155   1.92269   1.92743   1.93184   1.93488
 Alpha virt. eigenvalues --    1.93558   1.93800   1.94166   1.94321   1.94438
 Alpha virt. eigenvalues --    1.94813   1.95153   1.95279   1.95398   1.95837
 Alpha virt. eigenvalues --    1.96374   1.96659   1.97075   1.97307   1.97365
 Alpha virt. eigenvalues --    1.97702   1.97727   1.98216   1.98440   1.98626
 Alpha virt. eigenvalues --    1.98827   1.99257   1.99519   1.99822   2.00130
 Alpha virt. eigenvalues --    2.00244   2.00439   2.00689   2.00892   2.01311
 Alpha virt. eigenvalues --    2.01836   2.01910   2.02396   2.02600   2.03161
 Alpha virt. eigenvalues --    2.03349   2.03642   2.03832   2.03902   2.04242
 Alpha virt. eigenvalues --    2.04488   2.04796   2.04924   2.04993   2.05733
 Alpha virt. eigenvalues --    2.05814   2.06337   2.06539   2.06748   2.07382
 Alpha virt. eigenvalues --    2.07618   2.07991   2.08139   2.08292   2.08528
 Alpha virt. eigenvalues --    2.08608   2.08993   2.09224   2.09365   2.09602
 Alpha virt. eigenvalues --    2.10063   2.10308   2.10522   2.10764   2.11251
 Alpha virt. eigenvalues --    2.11533   2.11695   2.12067   2.12210   2.12312
 Alpha virt. eigenvalues --    2.12572   2.12984   2.13726   2.13913   2.13962
 Alpha virt. eigenvalues --    2.14419   2.14468   2.15069   2.15485   2.15612
 Alpha virt. eigenvalues --    2.16102   2.16247   2.16830   2.17116   2.17599
 Alpha virt. eigenvalues --    2.17711   2.17933   2.18223   2.18384   2.18643
 Alpha virt. eigenvalues --    2.19132   2.19641   2.19767   2.19952   2.20269
 Alpha virt. eigenvalues --    2.20707   2.20930   2.20963   2.21492   2.21834
 Alpha virt. eigenvalues --    2.21859   2.22713   2.22801   2.23444   2.23716
 Alpha virt. eigenvalues --    2.24211   2.24543   2.25000   2.25187   2.25720
 Alpha virt. eigenvalues --    2.26136   2.26371   2.26871   2.27226   2.27586
 Alpha virt. eigenvalues --    2.28293   2.28665   2.29040   2.29448   2.29778
 Alpha virt. eigenvalues --    2.29960   2.30173   2.30568   2.30817   2.31621
 Alpha virt. eigenvalues --    2.31971   2.32402   2.32658   2.33776   2.34001
 Alpha virt. eigenvalues --    2.34309   2.34593   2.34953   2.35638   2.35956
 Alpha virt. eigenvalues --    2.36755   2.36998   2.38124   2.38681   2.38994
 Alpha virt. eigenvalues --    2.39309   2.40314   2.40512   2.41028   2.41367
 Alpha virt. eigenvalues --    2.41927   2.42473   2.42896   2.43279   2.43456
 Alpha virt. eigenvalues --    2.43615   2.44262   2.44528   2.44651   2.45079
 Alpha virt. eigenvalues --    2.45271   2.45569   2.45627   2.45863   2.46318
 Alpha virt. eigenvalues --    2.46991   2.47412   2.48178   2.48574   2.48673
 Alpha virt. eigenvalues --    2.49108   2.49592   2.50582   2.52391   2.52711
 Alpha virt. eigenvalues --    2.53077   2.53899   2.54125   2.54480   2.55168
 Alpha virt. eigenvalues --    2.56536   2.56601   2.56954   2.57559   2.58136
 Alpha virt. eigenvalues --    2.58352   2.59930   2.60175   2.61592   2.61881
 Alpha virt. eigenvalues --    2.62069   2.62623   2.62910   2.63374   2.64431
 Alpha virt. eigenvalues --    2.65678   2.65809   2.66045   2.66516   2.67162
 Alpha virt. eigenvalues --    2.67723   2.67884   2.67998   2.68146   2.68611
 Alpha virt. eigenvalues --    2.69446   2.70006   2.70201   2.70790   2.71024
 Alpha virt. eigenvalues --    2.73246   2.73688   2.74340   2.75733   2.76211
 Alpha virt. eigenvalues --    2.76755   2.77482   2.77577   2.79151   2.79872
 Alpha virt. eigenvalues --    2.80548   2.81687   2.82342   2.82537   2.83445
 Alpha virt. eigenvalues --    2.83650   2.84667   2.85947   2.86470   2.86864
 Alpha virt. eigenvalues --    2.88678   2.89858   2.92055   2.92744   2.93465
 Alpha virt. eigenvalues --    2.95240   2.95977   2.96710   2.98140   2.99269
 Alpha virt. eigenvalues --    2.99963   3.00619   3.00675   3.01488   3.02929
 Alpha virt. eigenvalues --    3.03236   3.03335   3.05600   3.06282   3.10251
 Alpha virt. eigenvalues --    3.10831   3.11336   3.12731   3.13407   3.13925
 Alpha virt. eigenvalues --    3.14538   3.15039   3.15823   3.16660   3.17518
 Alpha virt. eigenvalues --    3.19407   3.22600   3.25348   3.28463   3.30062
 Alpha virt. eigenvalues --    3.32669   3.34878   3.36644   3.38569   3.40559
 Alpha virt. eigenvalues --    3.41731   3.42512   3.42809   3.45418   3.45813
 Alpha virt. eigenvalues --    3.46367   3.47171   3.47871   3.48058   3.48319
 Alpha virt. eigenvalues --    3.48389   3.49200   3.51030   3.51992   3.52039
 Alpha virt. eigenvalues --    3.54155   3.54999   3.56121   3.56396   3.58094
 Alpha virt. eigenvalues --    3.58456   3.58559   3.59040   3.60796   3.61889
 Alpha virt. eigenvalues --    3.63501   3.64572   3.65457   3.66855   3.67239
 Alpha virt. eigenvalues --    3.69172   3.72238   3.73787   3.77772   3.77863
 Alpha virt. eigenvalues --    3.79035   3.80800   3.82410   3.83121   3.87487
 Alpha virt. eigenvalues --    3.89421   3.90364   3.91192   3.92738   3.92864
 Alpha virt. eigenvalues --    3.94711   3.99523   4.01946   4.04890   4.09977
 Alpha virt. eigenvalues --    4.26615   4.34919   4.52107   4.79684   4.85626
 Alpha virt. eigenvalues --    4.89035
          Condensed to atoms (all electrons):
 Mulliken charges:
               1
     1  C   -0.817778
     2  C   -0.339691
     3  C   -0.314856
     4  C   -0.315466
     5  S   -0.246380
     6  C   -0.371906
     7  C    1.656171
     8  C    0.580035
     9  C    0.346223
    10  C    0.988606
    11  N    0.238923
    12  C    0.498531
    13  C    1.412948
    14  H   -1.270478
    15  C    1.000771
    16  C    0.673406
    17  C    0.296326
    18  C    1.524267
    19  H   -1.293558
    20  H   -0.977468
    21  O   -0.634396
    22  C    1.366713
    23  H   -0.223398
    24  H   -0.222926
    25  H   -0.580155
    26  H   -1.232209
    27  C    0.323886
    28  C    2.032035
    29  C    1.352674
    30  C    0.411697
    31  C    0.313336
    32  C    0.568001
    33  H   -1.205204
    34  H   -0.963036
    35  O   -0.640844
    36  C    1.361630
    37  H   -0.224825
    38  H   -0.225015
    39  H   -0.577068
    40  H   -1.235905
    41  H   -1.334106
    42  C    0.310654
    43  C    0.554996
    44  H   -1.034858
    45  H   -1.256096
    46  H   -1.263720
    47  H   -1.080003
    48  C    1.491872
    49  C   -0.299443
    50  H   -1.158465
    51  S   -0.005861
    52  C   -0.526155
    53  C    1.676906
    54  H   -1.154157
    55  C    0.242702
    56  S    0.050738
    57  C   -0.346709
    58  C    0.112051
    59  C    0.319468
    60  C    1.769317
    61  C   -0.141631
    62  S   -0.066495
    63  C    0.050050
    64  O   -0.582217
    65  O   -0.545200
    66  C    1.325455
    67  H   -0.231787
    68  H   -0.226739
    69  H   -0.481898
    70  H   -1.101293
    71  C    0.839957
    72  C    1.454719
    73  C   -0.738448
    74  N   -0.142611
    75  C    0.418725
    76  O   -0.445723
    77  H    0.146823
    78  O   -0.484762
    79  H   -1.010674
    80  C    2.145079
    81  H   -0.296083
    82  H   -0.372145
    83  H   -0.371964
    84  C    1.750898
    85  H   -0.276385
    86  H   -0.364041
    87  H   -0.354360
 Sum of Mulliken charges =  -0.00000
 Mulliken charges with hydrogens summed into heavy atoms:
               1
     1  C   -0.817778
     2  C   -0.339691
     3  C   -0.314856
     4  C   -0.315466
     5  S   -0.246380
     6  C   -0.371906
     7  C    1.656171
     8  C   -0.499968
     9  C   -0.917497
    10  C    0.988606
    11  N    0.238923
    12  C    0.498531
    13  C    0.142470
    15  C   -0.231438
    16  C    0.673406
    17  C   -0.681141
    18  C    0.230709
    21  O   -0.634396
    22  C    0.340235
    27  C    0.323886
    28  C    0.697929
    29  C    0.116769
    30  C    0.411697
    31  C   -0.649699
    32  C   -0.637202
    35  O   -0.640844
    36  C    0.334722
    42  C   -0.945442
    43  C   -0.479862
    48  C    0.333407
    49  C   -0.299443
    51  S   -0.005861
    52  C   -0.526155
    53  C    0.522749
    55  C    0.242702
    56  S    0.050738
    57  C   -0.346709
    58  C    0.112051
    59  C    0.319468
    60  C    0.668024
    61  C   -0.141631
    62  S   -0.066495
    63  C    0.050050
    64  O   -0.582217
    65  O   -0.545200
    66  C    0.385032
    71  C   -0.170717
    72  C    1.454719
    73  C   -0.738448
    74  N   -0.142611
    75  C    0.418725
    76  O   -0.298900
    78  O   -0.484762
    80  C    1.104887
    84  C    0.756112
 Electronic spatial extent (au):  <R**2>=         100541.1373
 Charge=             -0.0000 electrons
 Dipole moment (field-independent basis, Debye):
    X=             15.2646    Y=             -3.3555    Z=              5.7755  Tot=             16.6620
 Quadrupole moment (field-independent basis, Debye-Ang):
   XX=           -457.5401   YY=           -308.3183   ZZ=           -351.2736
   XY=             -0.3938   XZ=            -26.9775   YZ=             -2.5545
 Traceless Quadrupole moment (field-independent basis, Debye-Ang):
   XX=            -85.1628   YY=             64.0591   ZZ=             21.1037
   XY=             -0.3938   XZ=            -26.9775   YZ=             -2.5545
 Octapole moment (field-independent basis, Debye-Ang**2):
  XXX=           3058.6722  YYY=             91.7229  ZZZ=             27.0452  XYY=            139.5740
  XXY=            261.8897  XXZ=            802.2289  XZZ=             75.9802  YZZ=             -2.6609
  YYZ=             95.3314  XYZ=            -51.6957
 Hexadecapole moment (field-independent basis, Debye-Ang**3):
 XXXX=        -148598.6755 YYYY=         -13509.2939 ZZZZ=          -1790.7229 XXXY=          -1949.6571
 XXXZ=          -4520.3970 YYYX=           -822.7220 YYYZ=             91.1254 ZZZX=           -162.2988
 ZZZY=             15.6236 XXYY=         -19240.5166 XXZZ=         -20672.5087 YYZZ=          -2748.1257
 XXYZ=           -284.1292 YYXZ=            161.9249 ZZXY=           -230.9576
 N-N= 7.134635100550D+03 E-N=-2.321352255763D+04  KE= 3.794111658923D+03
 1\1\GINC-CN113\SP\RCAM-B3LYP TD-FC\Aug-CC-pVDZ\C43H32N2O6S4\R2532\18-J
 un-2021\0\\#N TD(NStates=10) CAM-B3lYP/aug-cc-pVDZ\\Name\\0,1\C,0,0.93
 7367,-3.073447,-0.186672\C,0,2.122867,-2.115248,-0.081661\C,0,1.679316
 ,-0.804099,0.068452\C,0,0.249325,-0.787165,0.077728\S,0,-1.03641,0.361
 025,0.215518\C,0,-2.23886,-0.926149,0.055578\C,0,-3.663445,-0.618716,0
 .088081\C,0,-4.167072,0.639785,-0.284618\C,0,-5.523215,0.918205,-0.260
 048\C,0,-6.453643,-0.056471,0.14537\N,0,-7.828021,0.221147,0.178165\C,
 0,-8.300703,1.55297,0.385806\C,0,-9.254197,2.109715,-0.465769\H,0,-9.6
 25209,1.528423,-1.30142\C,0,-9.745666,3.397532,-0.252908\C,0,-9.267005
 ,4.157431,0.817016\C,0,-8.304305,3.60531,1.672687\C,0,-7.836741,2.3187
 57,1.466163\H,0,-7.103023,1.89706,2.142771\H,0,-7.950783,4.202556,2.50
 4337\O,0,-9.668305,5.425275,1.114274\C,0,-10.642233,6.03995,0.282435\H
 ,0,-10.285306,6.139026,-0.748855\H,0,-11.585682,5.482513,0.288556\H,0,
 -10.808033,7.030888,0.701547\H,0,-10.488787,3.794368,-0.93121\C,0,-8.7
 90537,-0.816003,-0.01459\C,0,-8.706892,-1.681719,-1.105345\C,0,-9.6472
 55,-2.694117,-1.294967\C,0,-10.70787,-2.83637,-0.396541\C,0,-10.805065
 ,-1.960304,0.692355\C,0,-9.855745,-0.970857,0.884487\H,0,-9.935782,-0.
 303465,1.734163\H,0,-11.631034,-2.085101,1.381938\O,0,-11.686719,-3.78
 038,-0.489179\C,0,-11.645727,-4.694126,-1.575939\H,0,-11.722954,-4.177
 359,-2.539191\H,0,-10.731032,-5.297522,-1.559834\H,0,-12.508032,-5.346
 312,-1.448547\H,0,-9.548391,-3.348753,-2.150306\H,0,-7.894861,-1.56907
 8,-1.813892\C,0,-5.957184,-1.318867,0.523743\C,0,-4.600126,-1.587169,0
 .494737\H,0,-4.253834,-2.557328,0.831925\H,0,-6.64587,-2.082701,0.8609
 73\H,0,-5.873589,1.893646,-0.571326\H,0,-3.486389,1.408137,-0.634689\C
 ,0,-1.625489,-2.161053,-0.07841\C,0,-0.219718,-2.083396,-0.064821\H,0,
 -2.191968,-3.072577,-0.2147\S,0,2.977646,0.322058,0.184968\C,0,4.16218
 4,-0.988087,0.012416\C,0,3.51621,-2.21773,-0.113955\H,0,4.06458,-3.142
 153,-0.244654\C,0,5.567054,-0.737299,0.045138\S,0,6.680862,-2.036515,0
 .376555\C,0,8.117241,-1.007346,0.249715\C,0,7.699721,0.298072,-0.01317
 8\C,0,6.283611,0.455188,-0.144695\C,0,5.918293,1.776862,-0.543528\C,0,
 7.002029,2.580666,-0.716207\S,0,8.542754,1.781825,-0.380001\C,0,6.9294
 85,3.995445,-1.127359\O,0,5.9002,4.586493,-1.352715\O,0,8.156994,4.542
 399,-1.221469\C,0,8.202058,5.929065,-1.604344\H,0,7.756993,6.064628,-2
 .59108\H,0,7.661788,6.539691,-0.879736\H,0,9.25704,6.190991,-1.617581\
 H,0,4.914608,2.135918,-0.716605\C,0,9.37614,-1.65344,0.354095\C,0,10.6
 22163,-1.158916,0.653764\C,0,10.831709,0.144243,1.17759\N,0,10.995247,
 1.193976,1.635252\C,0,11.834467,-2.036742,0.645164\O,0,11.763023,-3.14
 7544,-0.146859\H,0,11.061204,-3.044195,-0.799445\O,0,12.816952,-1.8189
 28,1.296115\H,0,9.33135,-2.730405,0.206037\C,0,0.917271,-3.80042,-1.54
 8251\H,0,0.924169,-3.086302,-2.374015\H,0,1.789433,-4.452223,-1.648799
 \H,0,0.021019,-4.420217,-1.637464\C,0,0.930182,-4.093261,0.972236\H,0,
 0.947217,-3.587426,1.939546\H,0,0.0336,-4.717316,0.926403\H,0,1.80217,
 -4.750158,0.911574\\Version=ES64L-G16RevB.01\State=1-A\HF=-3810.565777
 5\RMSD=2.173e-09\PG=C01 [X(C43H32N2O6S4)]\\@


 THOSE WHO TRY TO PASS CHEMISTRY OFF AS A NEW SCIENCE
 SHOW HOW LITTLE KNOWLEDGE THEY HAVE OF THE CHARACTER
 AND LITERATURE OF THE ANCIENTS.
   -- NICOLAS LEFEVRE
 "COURS DE CHYMIE" J.-N.LELOUP, PARIS, 1751
 Job cpu time:       3 days 19 hours 50 minutes 38.1 seconds.
 Elapsed time:       3 days 20 hours 13 minutes 14.7 seconds.
 File lengths (MBytes):  RWF=  12163 Int=      0 D2E=      0 Chk=    865 Scr=      1
 Normal termination of Gaussian 16 at Fri Jun 18 05:05:11 2021.
