 Entering Gaussian System, Link 0=/usr/local/apps//g09/g09
 Input=mex.com
 Output=mex.out
 Initial command:
 /usr/local/apps//g09/l1.exe "/tmp/bnp.476635.sequoia/Gau-6963.inp" -scrdir="/tmp/bnp.476635.sequoia/"
 Entering Link 1 = /usr/local/apps//g09/l1.exe PID=      6964.
  
 Copyright (c) 1988,1990,1992,1993,1995,1998,2003,2009,2013,
            Gaussian, Inc.  All Rights Reserved.
  
 This is part of the Gaussian(R) 09 program.  It is based on
 the Gaussian(R) 03 system (copyright 2003, Gaussian, Inc.),
 the Gaussian(R) 98 system (copyright 1998, Gaussian, Inc.),
 the Gaussian(R) 94 system (copyright 1995, Gaussian, Inc.),
 the Gaussian 92(TM) system (copyright 1992, Gaussian, Inc.),
 the Gaussian 90(TM) system (copyright 1990, Gaussian, Inc.),
 the Gaussian 88(TM) system (copyright 1988, Gaussian, Inc.),
 the Gaussian 86(TM) system (copyright 1986, Carnegie Mellon
 University), and the Gaussian 82(TM) system (copyright 1983,
 Carnegie Mellon University). Gaussian is a federally registered
 trademark of Gaussian, Inc.
  
 This software contains proprietary and confidential information,
 including trade secrets, belonging to Gaussian, Inc.
  
 This software is provided under written license and may be
 used, copied, transmitted, or stored only in accord with that
 written license.
  
 The following legend is applicable only to US Government
 contracts under FAR:
  
                    RESTRICTED RIGHTS LEGEND
  
 Use, reproduction and disclosure by the US Government is
 subject to restrictions as set forth in subparagraphs (a)
 and (c) of the Commercial Computer Software - Restricted
 Rights clause in FAR 52.227-19.
  
 Gaussian, Inc.
 340 Quinnipiac St., Bldg. 40, Wallingford CT 06492
  
  
 ---------------------------------------------------------------
 Warning -- This program may not be used in any manner that
 competes with the business of Gaussian, Inc. or will provide
 assistance to any competitor of Gaussian, Inc.  The licensee
 of this program is prohibited from giving any competitor of
 Gaussian, Inc. access to this program.  By using this program,
 the user acknowledges that Gaussian, Inc. is engaged in the
 business of creating and licensing software in the field of
 computational chemistry and represents and warrants to the
 licensee that it is not a competitor of Gaussian, Inc. and that
 it will not use this program in any manner prohibited above.
 ---------------------------------------------------------------
  

 Cite this work as:
 Gaussian 09, Revision D.01,
 M. J. Frisch, G. W. Trucks, H. B. Schlegel, G. E. Scuseria, 
 M. A. Robb, J. R. Cheeseman, G. Scalmani, V. Barone, B. Mennucci, 
 G. A. Petersson, H. Nakatsuji, M. Caricato, X. Li, H. P. Hratchian, 
 A. F. Izmaylov, J. Bloino, G. Zheng, J. L. Sonnenberg, M. Hada, 
 M. Ehara, K. Toyota, R. Fukuda, J. Hasegawa, M. Ishida, T. Nakajima, 
 Y. Honda, O. Kitao, H. Nakai, T. Vreven, J. A. Montgomery, Jr., 
 J. E. Peralta, F. Ogliaro, M. Bearpark, J. J. Heyd, E. Brothers, 
 K. N. Kudin, V. N. Staroverov, T. Keith, R. Kobayashi, J. Normand, 
 K. Raghavachari, A. Rendell, J. C. Burant, S. S. Iyengar, J. Tomasi, 
 M. Cossi, N. Rega, J. M. Millam, M. Klene, J. E. Knox, J. B. Cross, 
 V. Bakken, C. Adamo, J. Jaramillo, R. Gomperts, R. E. Stratmann, 
 O. Yazyev, A. J. Austin, R. Cammi, C. Pomelli, J. W. Ochterski, 
 R. L. Martin, K. Morokuma, V. G. Zakrzewski, G. A. Voth, 
 P. Salvador, J. J. Dannenberg, S. Dapprich, A. D. Daniels, 
 O. Farkas, J. B. Foresman, J. V. Ortiz, J. Cioslowski, 
 and D. J. Fox, Gaussian, Inc., Wallingford CT, 2013.
 
 ******************************************
 Gaussian 09:  ES64L-G09RevD.01 24-Apr-2013
                24-Jun-2021 
 ******************************************
 %mem=8gb
 --------------------------------------
 #N TD(NStates=3) mPW1PBE/6-311+G(2d,p)
 --------------------------------------
 1/38=1/1;
 2/12=2,17=6,18=5,40=1/2;
 3/5=4,6=6,7=112,11=9,16=1,25=1,30=1,74=-11/1,2,8,3;
 4//1;
 5/5=2,38=5/2;
 8/6=1,10=2,108=3/1;
 9/41=3,42=1,70=2/14;
 6/7=2,8=2,9=2,10=2/1;
 99/5=1,9=1/99;
 ----
 AP25
 ----
 Symbolic Z-matrix:
 Charge =  0 Multiplicity = 1
 C                     0.        0.        0. 
 C                     1.1855    0.9582    0.10501 
 C                     0.74195   2.26935   0.25512 
 C                    -0.68804   2.28628   0.2644 
 S                    -1.97378   3.43447   0.40219 
 C                    -3.17623   2.1473    0.24225 
 C                    -4.60081   2.45473   0.27475 
 C                    -5.10444   3.71323  -0.09795 
 C                    -6.46058   3.99165  -0.07338 
 C                    -7.39101   3.01698   0.33204 
 N                    -8.76539   3.29459   0.36484 
 C                    -9.23807   4.62642   0.57248 
 C                    -10.19156   5.18316  -0.2791 
 H                    -10.56258   4.60187  -1.11475 
 C                    -10.68303   6.47098  -0.06624 
 C                    -10.20437   7.23088   1.00369 
 C                    -9.24167   6.67876   1.85936 
 C                    -8.77411   5.3922    1.65284 
 H                    -8.04039   4.97051   2.32944 
 H                    -8.88815   7.276     2.69101 
 O                    -10.60567   8.49872   1.30095 
 C                    -11.5796   9.1134    0.46911 
 H                    -11.22267   9.21247  -0.56218 
 H                    -12.52305   8.55596   0.47523 
 H                    -11.7454   10.10434   0.88822 
 H                    -11.42615   6.86782  -0.74454 
 C                    -9.7279    2.25744   0.17208 
 C                    -9.64426   1.39173  -0.91867 
 C                    -10.58462   0.37933  -1.1083 
 C                    -11.64524   0.23708  -0.20987 
 C                    -11.74243   1.11314   0.87903 
 C                    -10.79311   2.10259   1.07116 
 H                    -10.87315   2.76998   1.92084 
 H                    -12.5684   0.98835   1.56861 
 O                    -12.62409  -0.70693  -0.30251 
 C                    -12.58309  -1.62068  -1.38927 
 H                    -12.66032  -1.10391  -2.35252 
 H                    -11.6684  -2.22408  -1.37316 
 H                    -13.4454  -2.27287  -1.26188 
 H                    -10.48576  -0.27531  -1.96363 
 H                    -8.83223   1.50437  -1.62722 
 C                    -6.89455   1.75458   0.71042 
 C                    -5.53749   1.48628   0.68141 
 H                    -5.1912    0.51612   1.0186 
 H                    -7.58324   0.99075   1.04764 
 H                    -6.81096   4.96709  -0.38465 
 H                    -4.42376   4.48158  -0.44802 
 C                    -2.56286   0.91239   0.10826 
 C                    -1.15709   0.99005   0.12185 
 H                    -3.12934   0.00087  -0.02803 
 
                          Input orientation:                          
 ---------------------------------------------------------------------
 Center     Atomic      Atomic             Coordinates (Angstroms)
 Number     Number       Type             X           Y           Z
 ---------------------------------------------------------------------
      1          6           0        0.000000    0.000000    0.000000
      2          6           0        1.185500    0.958200    0.105010
      3          6           0        0.741950    2.269350    0.255120
      4          6           0       -0.688040    2.286280    0.264400
      5         16           0       -1.973780    3.434470    0.402190
      6          6           0       -3.176230    2.147300    0.242250
      7          6           0       -4.600810    2.454730    0.274750
      8          6           0       -5.104440    3.713230   -0.097950
      9          6           0       -6.460580    3.991650   -0.073380
     10          6           0       -7.391010    3.016980    0.332040
     11          7           0       -8.765390    3.294590    0.364840
     12          6           0       -9.238070    4.626420    0.572480
     13          6           0      -10.191560    5.183160   -0.279100
     14          1           0      -10.562580    4.601870   -1.114750
     15          6           0      -10.683030    6.470980   -0.066240
     16          6           0      -10.204370    7.230880    1.003690
     17          6           0       -9.241670    6.678760    1.859360
     18          6           0       -8.774110    5.392200    1.652840
     19          1           0       -8.040390    4.970510    2.329440
     20          1           0       -8.888150    7.276000    2.691010
     21          8           0      -10.605670    8.498720    1.300950
     22          6           0      -11.579600    9.113400    0.469110
     23          1           0      -11.222670    9.212470   -0.562180
     24          1           0      -12.523050    8.555960    0.475230
     25          1           0      -11.745400   10.104340    0.888220
     26          1           0      -11.426150    6.867820   -0.744540
     27          6           0       -9.727900    2.257440    0.172080
     28          6           0       -9.644260    1.391730   -0.918670
     29          6           0      -10.584620    0.379330   -1.108300
     30          6           0      -11.645240    0.237080   -0.209870
     31          6           0      -11.742430    1.113140    0.879030
     32          6           0      -10.793110    2.102590    1.071160
     33          1           0      -10.873150    2.769980    1.920840
     34          1           0      -12.568400    0.988350    1.568610
     35          8           0      -12.624090   -0.706930   -0.302510
     36          6           0      -12.583090   -1.620680   -1.389270
     37          1           0      -12.660320   -1.103910   -2.352520
     38          1           0      -11.668400   -2.224080   -1.373160
     39          1           0      -13.445400   -2.272870   -1.261880
     40          1           0      -10.485760   -0.275310   -1.963630
     41          1           0       -8.832230    1.504370   -1.627220
     42          6           0       -6.894550    1.754580    0.710420
     43          6           0       -5.537490    1.486280    0.681410
     44          1           0       -5.191200    0.516120    1.018600
     45          1           0       -7.583240    0.990750    1.047640
     46          1           0       -6.810960    4.967090   -0.384650
     47          1           0       -4.423760    4.481580   -0.448020
     48          6           0       -2.562860    0.912390    0.108260
     49          6           0       -1.157090    0.990050    0.121850
     50          1           0       -3.129340    0.000870   -0.028030
 ---------------------------------------------------------------------
                    Distance matrix (angstroms):
                    1          2          3          4          5
     1  C    0.000000
     2  C    1.527935   0.000000
     3  C    2.401151   1.392259   0.000000
     4  C    2.402162   2.302033   1.430120   0.000000
     5  S    3.981601   4.025081   2.958771   1.729293   0.000000
     6  C    3.841617   4.522995   3.920102   2.492167   1.768693
     7  C    5.221938   5.979113   5.346011   3.916408   2.806674
     8  C    6.312922   6.869842   6.032390   4.655327   3.182590
     9  C    7.594587   8.227769   7.412872   6.028648   4.546206
    10  C    7.989959   8.823074   8.167613   6.743019   5.433746
    11  N    9.371206  10.224795   9.563089   8.140661   6.793153
    12  C   10.347629  11.060071  10.259498   8.869847   7.363400
    13  C   11.437261  12.142295  11.327724   9.950085   8.429352
    14  H   11.575317  12.360483  11.623665  10.235749   8.799512
    15  C   12.490200  13.087478  12.177321  10.840704   9.235305
    16  C   12.546800  13.033928  12.041555  10.749705   9.083895
    17  C   11.552987  12.021998  11.031281   9.746916   8.091414
    18  C   10.430374  11.011356  10.112429   8.772630   7.186190
    19  H    9.735509  10.303580   9.419584   8.094846   6.548089
    20  H   11.797496  12.168830  11.123800   9.900886   8.234353
    21  O   13.652873  14.047114  12.987197  11.748542  10.048081
    22  C   14.743177  15.152149  14.096361  12.856032  11.159144
    23  H   14.530450  14.917801  13.857382  12.634626  10.947934
    24  H   15.174224  15.677607  14.680945  13.394805  11.726981
    25  H   15.519054  15.857915  14.755399  13.556416  11.840944
    26  H   13.352086  13.953460  13.046375  11.718169  10.121768
    27  C    9.987877  10.990670  10.470186   9.040377   7.846319
    28  C    9.787370  10.886669  10.489107   9.078202   8.046970
    29  C   10.649244  11.846642  11.563835  10.171679   9.260779
    30  C   11.649544  12.854845  12.561402  11.157257  10.204659
    31  C   11.827782  12.952007  12.553319  11.133444  10.051988
    32  C   11.048054  12.071875  11.565091  10.138888   8.944384
    33  H   11.383664  12.328456  11.744607  10.330258   9.052438
    34  H   12.704411  13.831587  13.436206  12.022002  10.935722
    35  O   12.647486  13.915585  13.704752  12.318684  11.448882
    36  C   12.762869  14.087497  13.978306  12.628982  11.887865
    37  H   12.924267  14.212617  14.064121  12.715233  11.932622
    38  H   11.957577  13.324212  13.298834  11.983040  11.364713
    39  H   13.694417  15.045645  14.973775  13.633254  12.920562
    40  H   10.671589  11.917178  11.724317  10.369242   9.581930
    41  H    9.106001  10.181053   9.787406   8.397466   7.408247
    42  C    7.149690   8.141741   7.667361   6.245191   5.208744
    43  C    5.773833   6.768286   6.342420   4.932653   4.071049
    44  H    5.315307   6.456964   6.233698   4.897013   4.387313
    45  H    7.719110   8.819320   8.460006   7.059437   6.152594
    46  H    8.438549   8.958479   8.045717   6.715516   5.134818
    47  H    6.313076   6.647093   5.663296   4.391183   2.796730
    48  C    2.722577   3.748641   3.575567   2.329572   2.606587
    49  C    1.527712   2.342867   2.293626   1.385836   2.592443
    50  H    3.129466   4.421767   4.495894   3.356868   3.648290
                    6          7          8          9         10
     6  C    0.000000
     7  C    1.457737   0.000000
     8  C    2.507163   1.405835   0.000000
     9  C    3.779974   2.437635   1.384643   0.000000
    10  C    4.304506   2.846862   2.428592   1.407141   0.000000
    11  N    5.707014   4.249377   3.713757   2.447464   1.402520
    12  C    6.557514   5.129236   4.286058   2.921390   2.461654
    13  C    7.661795   6.245604   5.298330   3.922018   3.592897
    14  H    7.900920   6.487189   5.622709   4.275889   3.829352
    15  C    8.668415   7.296570   6.223091   4.896551   4.788125
    16  C    8.707315   7.398841   6.292596   5.066424   5.111072
    17  C    7.742011   6.472326   5.453632   4.323252   4.377931
    18  C    6.622341   5.286236   4.398941   3.208395   3.049450
    19  H    5.998911   4.730921   4.011580   3.037682   2.868376
    20  H    8.057668   6.889430   5.898143   4.931724   5.093665
    21  O    9.831478   8.581448   7.424377   6.275686   6.428242
    22  C   10.917630   9.647755   8.450508   7.261610   7.397933
    23  H   10.738200   9.498238   8.239532   7.083318   7.339301
    24  H   11.335266  10.001354   8.877857   7.608380   7.552393
    25  H   11.711637  10.485134   9.269367   8.137504   8.336709
    26  H    9.556058   8.191433   7.094613   5.777516   5.680700
    27  C    6.552971   5.131912   4.854753   3.707171   2.462426
    28  C    6.614683   5.290615   5.164582   4.196417   3.046777
    29  C    7.735241   6.482754   6.493695   5.579213   4.385307
    30  C    8.693531   7.401137   7.407983   6.402822   5.110771
    31  C    8.651864   7.291622   7.195684   6.090225   4.781073
    32  C    7.661981   6.253227   6.026769   4.863058   3.599541
    33  H    7.902403   6.492399   6.184113   4.994013   3.835439
    34  H    9.555901   8.204074   8.118688   7.001529   5.696474
    35  O    9.884607   8.643052   8.724952   7.753580   6.454091
    36  C   10.263944   9.115631   9.276223   8.409218   7.171366
    37  H   10.356214   9.193594   9.240089   8.342421   7.207928
    38  H    9.686871   8.634680   8.942225   8.212558   6.976567
    39  H   11.280787  10.145847  10.332460   9.457508   8.196263
    40  H    8.010254   6.862660   6.953260   6.162959   5.068210
    41  H    5.991545   4.735566   4.595013   3.771698   2.864228
    42  C    3.768198   2.437470   2.773854   2.409804   1.408296
    43  C    2.491056   1.407351   2.398800   2.774650   2.429123
    44  H    2.706210   2.158722   3.387584   3.857856   3.400710
    45  H    4.626878   3.411083   3.855998   3.394474   2.157462
    46  H    4.642788   3.410502   2.136954   1.082191   2.157089
    47  H    2.735264   2.159135   1.084544   2.128150   3.399723
    48  C    1.385344   2.561205   3.787724   4.970619   5.271661
    49  C    2.330376   3.745380   4.800583   6.097108   6.558535
    50  H    2.163888   2.877208   4.205654   5.198610   5.233393
                   11         12         13         14         15
    11  N    0.000000
    12  C    1.428395   0.000000
    13  C    2.452614   1.394378   0.000000
    14  H    2.669843   2.145151   1.083450   0.000000
    15  C    3.735321   2.428636   1.394752   2.146498   0.000000
    16  C    4.239478   2.811208   2.416376   3.395261   1.396894
    17  C    3.730019   2.422431   2.777071   3.860519   2.414255
    18  C    2.461501   1.403159   2.405256   3.388628   2.786212
    19  H    2.682161   2.154006   3.387807   4.284832   3.869656
    20  H    4.612783   3.410409   3.860105   4.943531   3.387046
    21  O    5.598741   4.170816   3.696077   4.585074   2.446819
    22  C    6.464457   5.062256   4.234768   4.888440   2.841271
    23  H    6.474480   5.124251   4.168772   4.690276   2.837769
    24  H    6.466391   5.122679   4.169009   4.691088   2.833020
    25  H    7.451650   6.032744   5.291037   5.973954   3.903963
    26  H    4.591115   3.397957   2.139843   2.453026   1.081573
    27  C    1.428027   2.452003   2.996395   2.801602   4.327007
    28  C    2.457781   3.584932   3.883752   3.344661   5.253995
    29  C    3.738781   4.761932   4.890690   4.222602   6.180920
    30  C    4.239363   5.066838   5.155743   4.587194   6.309357
    31  C    3.726377   4.325382   4.506831   4.187892   5.542771
    32  C    2.455891   3.006085   3.416866   3.328325   4.515377
    33  H    2.671891   2.817433   3.335827   3.559084   4.205001
    34  H    4.607677   5.031792   5.163316   4.927602   6.023835
    35  O    5.598847   6.377724   6.372669   5.752644   7.439484
    36  C    6.466190   7.352814   7.296858   6.548126   8.416389
    37  H    6.473123   7.287256   7.065486   6.203911   8.155716
    38  H    6.473317   7.524717   7.631856   6.919769   8.847772
    39  H    7.452873   8.286538   8.194249   7.456162   9.247441
    40  H    4.596263   5.658228   5.720060   4.951099   7.010808
    41  H    2.679115   3.840649   4.147132   3.584863   5.525336
    42  C    2.447672   3.709256   4.858455   4.989263   6.099198
    43  C    3.713427   4.854548   6.020786   6.179371   7.202971
    44  H    4.574072   5.785391   6.961960   7.077871   8.172970
    45  H    2.677942   4.022727   5.112717   5.156800   6.393931
    46  H    2.679326   2.631163   3.389142   3.839412   4.166053
    47  H    4.573777   4.923411   5.812767   6.176092   6.578900
    48  C    6.649217   7.652970   8.751376   8.894017   9.842029
    49  C    7.953375   8.872908   9.968178  10.150747  10.991793
    50  H    6.539725   7.685890   8.763225   8.809269   9.945955
                   16         17         18         19         20
    16  C    0.000000
    17  C    1.401356   0.000000
    18  C    2.418219   1.384377   0.000000
    19  H    3.398484   2.140600   1.083492   0.000000
    20  H    2.140448   1.083196   2.153951   2.482884   0.000000
    21  O    1.362653   2.341916   3.623383   4.481821   2.525309
    22  C    2.391843   3.650505   4.808255   5.757636   3.944209
    23  H    2.723157   4.025904   5.049378   6.040083   4.447825
    24  H    2.722386   4.025811   5.044868   6.032229   4.445276
    25  H    3.262649   4.352743   5.622942   6.493106   4.406068
    26  H    2.163531   3.404114   3.867583   4.951011   4.290811
    27  C    5.064949   4.757248   3.595704   3.855210   5.677687
    28  C    6.172914   5.986002   4.834624   5.092179   6.944503
    29  C    7.179751   7.091780   6.002558   6.274559   8.054615
    30  C    7.243071   7.180119   6.187757   6.469034   8.097101
    31  C    6.309351   6.179885   5.264984   5.539683   7.029298
    32  C    5.162415   4.895871   3.903363   4.169616   5.746038
    33  H    4.603049   4.236044   3.369545   3.610238   4.983734
    34  H    6.699026   6.597911   5.813573   6.077774   7.371470
    35  O    8.400597   8.406121   7.472960   7.756983   9.308361
    36  C    9.472839   9.518371   8.540682   8.826591  10.461940
    37  H    9.314750   9.486678   8.564168   8.953384  10.482812
    38  H    9.858452   9.777462   8.691450   8.867572  10.700411
    39  H   10.293607  10.370398   9.437682   9.725136  11.294901
    40  H    8.076327   8.032565   6.937526   7.206172   9.013341
    41  H    6.449602   6.252855   5.086983   5.319426   7.208464
    42  C    6.405527   5.574638   4.201569   3.778410   6.195422
    43  C    7.408378   6.486167   5.164842   4.595690   6.984717
    44  H    8.379743   7.422352   6.084050   5.447731   7.884185
    45  H    6.768418   5.980195   4.599696   4.206006   6.626298
    46  H    4.308998   3.724748   2.861126   2.979563   4.370980
    47  H    6.563655   5.776146   4.916135   4.586213   6.131319
    48  C    9.955792   8.995770   7.812429   7.169750   9.336778
    49  C   11.026281  10.036971   8.929829   8.252111  10.289948
    50  H   10.168261   9.247542   7.984685   7.373832   9.668743
                   21         22         23         24         25
    21  O    0.000000
    22  C    1.420679   0.000000
    23  H    2.088392   1.095798   0.000000
    24  H    2.088405   1.095844   1.788355   0.000000
    25  H    2.011802   1.088625   1.781106   1.781230   0.000000
    26  H    2.741724   2.557171   2.360518   2.353900   3.639078
    27  C    6.403000   7.107827   7.151637   6.897544   8.133695
    28  C    7.507352   8.080573   7.986391   7.845800   9.142714
    29  C    8.469322   8.930968   8.872977   8.551161   9.995465
    30  C    8.462741   8.902493   8.992236   8.393073   9.928678
    31  C    7.484453   8.012410   8.242960   7.494531   8.991205
    32  C    6.403001   7.080430   7.307716   6.707742   8.060293
    33  H    5.768385   6.545653   6.913265   6.187853   7.457879
    34  H    7.767214   8.258515   8.601593   7.646323   9.178319
    35  O    9.559764   9.905818  10.021273   9.296032  10.912080
    36  C   10.655972  10.939883  10.949519  10.346205  11.973503
    37  H   10.477592  10.654716  10.568815  10.066186  11.703177
    38  H   11.102193  11.486527  11.473929  10.970699  12.534341
    39  H   11.430631  11.667248  11.719349  11.005991  12.677076
    40  H    9.362450   9.760255   9.618995   9.385623  10.837752
    41  H    7.787182   8.357032   8.140228   8.232094   9.421968
    42  C    7.720399   8.726979   8.716207   8.831427   9.658201
    43  C    8.674364   9.732683   9.672735   9.940872  10.623176
    44  H    9.649773  10.725056  10.700654  10.894508  11.615012
    45  H    8.097460   9.071000   9.134202   9.053274  10.020305
    46  H    5.451007   6.376576   6.125190   6.800541   7.236037
    47  H    7.577092   8.573268   8.283691   9.113257   9.327775
    48  C   11.120328  12.193784  12.013872  12.560423  13.016118
    49  C   12.126255  13.218855  13.015068  13.658438  13.991780
    50  H   11.396278  12.437534  12.273585  12.715527  13.310000
                   26         27         28         29         30
    26  H    0.000000
    27  C    4.997984   0.000000
    28  C    5.761338   1.395057   0.000000
    29  C    6.552938   2.429123   1.394701   0.000000
    30  C    6.655868   2.811393   2.416513   1.397257   0.000000
    31  C    5.987684   2.422299   2.776987   2.414225   1.400939
    32  C    5.138572   1.402496   2.405120   2.786241   2.418117
    33  H    4.919589   2.152314   3.387117   3.869644   3.398769
    34  H    6.420558   3.410180   3.860035   3.387054   2.140005
    35  O    7.681620   4.171408   3.696406   2.447181   1.363042
    36  C    8.591206   5.062582   4.234714   2.841279   2.392032
    37  H    8.225403   5.125560   4.169024   2.838418   2.723893
    38  H    9.116825   5.122239   4.168667   2.832397   2.722331
    39  H    9.375352   6.033221   5.291101   3.904077   3.262997
    40  H    7.307176   3.398593   2.139880   1.081627   2.163934
    41  H    6.022802   2.146350   1.083570   2.146128   3.395281
    42  C    6.985523   2.927550   3.216597   4.337703   5.071370
    43  C    8.103741   4.291112   4.408487   5.468265   6.297578
    44  H    9.073442   4.932589   4.934516   5.799258   6.575837
    45  H    7.247056   2.640204   2.876624   3.745690   4.318471
    46  H    5.004226   4.020036   4.593034   5.984290   6.765634
    47  H    7.403751   5.784913   6.084596   7.431058   8.379873
    48  C   10.712251   7.290475   7.171512   8.130978   9.113006
    49  C   11.863912   8.664155   8.560145   9.527044  10.520375
    50  H   10.793769   6.976614   6.721005   7.542640   8.521116
                   31         32         33         34         35
    31  C    0.000000
    32  C    1.384606   0.000000
    33  H    2.141526   1.083408   0.000000
    34  H    1.083199   2.154215   2.484380   0.000000
    35  O    2.342225   3.623929   4.483077   2.525503   0.000000
    36  C    3.650434   4.808376   5.758352   3.944149   1.420446
    37  H    4.025015   5.048733   6.038427   4.445364   2.088408
    38  H    4.026770   5.045880   6.035188   4.447889   2.088391
    39  H    4.353007   5.623377   6.494345   4.406400   2.011743
    40  H    3.404075   3.867664   4.951057   4.290798   2.741910
    41  H    3.860520   3.388831   4.284373   4.943538   4.585074
    42  C    4.893037   3.930651   4.280819   5.789315   6.317649
    43  C    6.219290   5.305967   5.626130   7.104136   7.483192
    44  H    6.579858   5.822460   6.178873   7.412732   7.647813
    45  H    4.164405   3.397059   3.840787   5.012308   5.487731
    46  H    6.385077   5.116861   5.161779   7.265928   8.123653
    47  H    8.165193   6.966787   7.080657   9.088708   9.705010
    48  C    9.214059   8.371426   8.706148  10.111836  10.198984
    49  C   10.613100   9.746375  10.040236  11.502657  11.599651
    50  H    8.731851   8.022395   8.451784   9.623940   9.525051
                   36         37         38         39         40
    36  C    0.000000
    37  H    1.095840   0.000000
    38  H    1.095906   1.788248   0.000000
    39  H    1.088650   1.781099   1.781149   0.000000
    40  H    2.557089   2.359348   2.354782   3.638979   0.000000
    41  H    4.887894   4.688652   4.691455   5.973471   2.452467
    42  C    6.939781   7.127178   6.554440   7.938763   4.916074
    43  C    7.973794   8.163855   7.454937   8.968981   5.880885
    44  H    8.062493   8.353245   7.428548   9.006157   6.128003
    45  H    6.144640   6.459522   5.734452   7.095775   4.369814
    46  H    8.816204   8.657053   8.734117   9.859125   6.593943
    47  H   10.232214  10.132410   9.914967  11.299334   7.853211
    48  C   10.443373  10.586765   9.743865  11.421595   8.275005
    49  C   11.817482  11.951212  11.092940  12.789211   9.642326
    50  H    9.687920   9.872354   8.926103  10.635477   7.611816
                   41         42         43         44         45
    41  H    0.000000
    42  C    3.046600   0.000000
    43  C    4.023110   1.383632   0.000000
    44  H    4.608047   2.128417   1.083893   0.000000
    45  H    2.996441   1.082334   2.136532   2.438847   0.000000
    46  H    4.197612   3.395053   3.856715   4.940027   4.296411
    47  H    5.448752   3.857890   3.389370   4.297070   4.940163
    48  C    6.532024   4.453697   3.083225   2.809612   5.108110
    49  C    7.888697   5.818021   4.443788   4.159665   6.492495
    50  H    6.110718   4.218722   2.917008   2.369005   4.687660
                   46         47         48         49         50
    46  H    0.000000
    47  H    2.436895   0.000000
    48  C    5.893208   4.063436   0.000000
    49  C    6.931063   4.815254   1.407979   0.000000
    50  H    6.192321   4.682807   1.081824   2.211495   0.000000
 Stoichiometry    C27H19NO2S
 Framework group  C1[X(C27H19NO2S)]
 Deg. of freedom   144
 Full point group                 C1      NOp   1
 Largest Abelian subgroup         C1      NOp   1
 Largest concise Abelian subgroup C1      NOp   1
                         Standard orientation:                         
 ---------------------------------------------------------------------
 Center     Atomic      Atomic             Coordinates (Angstroms)
 Number     Number       Type             X           Y           Z
 ---------------------------------------------------------------------
      1          6           0       -7.685751    1.518247    0.015902
      2          6           0       -8.655192    0.341346   -0.082449
      3          6           0       -7.957835   -0.862189   -0.142266
      4          6           0       -6.553408   -0.597706   -0.088621
      5         16           0       -5.063574   -1.475531   -0.105035
      6          6           0       -4.143487    0.031650   -0.004435
      7          6           0       -2.686151    0.010734    0.022634
      8          6           0       -1.941272   -1.039794   -0.541209
      9          6           0       -0.556812   -1.044863   -0.519298
     10          6           0        0.160207    0.009355    0.076147
     11          7           0        1.562389    0.007247    0.106905
     12          6           0        2.292515   -1.220431    0.101211
     13          6           0        3.336880   -1.422198   -0.800390
     14          1           0        3.582703   -0.643608   -1.512594
     15          6           0        4.076610   -2.604600   -0.792857
     16          6           0        3.761453   -3.617281    0.116245
     17          6           0        2.708996   -3.422498    1.020786
     18          6           0        1.992953   -2.237685    1.020076
     19          1           0        1.190684   -2.092596    1.733706
     20          1           0        2.483506   -4.212331    1.726924
     21          8           0        4.408967   -4.812795    0.207310
     22          6           0        5.484991   -5.069845   -0.683997
     23          1           0        5.153556   -5.057737   -1.728400
     24          1           0        6.297709   -4.346667   -0.552174
     25          1           0        5.846512   -6.065730   -0.433757
     26          1           0        4.883110   -2.723560   -1.503636
     27          6           0        2.297413    1.231453    0.124828
     28          6           0        2.040441    2.238779   -0.805465
     29          6           0        2.758725    3.434187   -0.789391
     30          6           0        3.770745    3.625681    0.154787
     31          6           0        4.043063    2.611364    1.081951
     32          6           0        3.311408    1.435901    1.071935
     33          1           0        3.524771    0.660889    1.798299
     34          1           0        4.828363    2.775756    1.809686
     35          8           0        4.540583    4.745939    0.256068
     36          6           0        4.315772    5.807353   -0.660735
     37          1           0        4.493453    5.490390   -1.694577
     38          1           0        3.298803    6.206170   -0.572837
     39          1           0        5.030205    6.584980   -0.396085
     40          1           0        2.529468    4.194154   -1.524106
     41          1           0        1.266335    2.092143   -1.549362
     42          6           0       -0.578419    1.064080    0.646483
     43          6           0       -1.961761    1.059970    0.618453
     44          1           0       -2.494800    1.869473    1.103632
     45          1           0       -0.056126    1.878888    1.130988
     46          1           0       -0.018669   -1.863132   -0.979707
     47          1           0       -2.454833   -1.855161   -1.038871
     48          6           0       -4.991932    1.125293    0.052704
     49          6           0       -6.353653    0.770366    0.006346
     50          1           0       -4.619671    2.140297    0.091821
 ---------------------------------------------------------------------
 Rotational constants (GHZ):      0.1674611      0.0634438      0.0472805
 Standard basis: 6-311+G(2d,p) (5D, 7F)
 There are  1021 symmetry adapted cartesian basis functions of A   symmetry.
 There are   959 symmetry adapted basis functions of A   symmetry.
   959 basis functions,  1468 primitive gaussians,  1021 cartesian basis functions
   110 alpha electrons      110 beta electrons
       nuclear repulsion energy      2764.6711738067 Hartrees.
 NAtoms=   50 NActive=   50 NUniq=   50 SFac= 1.00D+00 NAtFMM=   60 NAOKFM=F Big=F
 Integral buffers will be    131072 words long.
 Regular integral format.
 Two-electron integral symmetry is turned on.
 One-electron integrals computed using PRISM.
 NBasis=   959 RedAO= T EigKep=  1.16D-06  NBF=   959
 NBsUse=   949 1.00D-06 EigRej=  9.52D-07 NBFU=   949
 ExpMin= 4.05D-02 ExpMax= 9.34D+04 ExpMxC= 3.17D+03 IAcc=2 IRadAn=         4 AccDes= 0.00D+00
 Harris functional with IExCor=  909 and IRadAn=       4 diagonalized for initial guess.
 HarFok:  IExCor=  909 AccDes= 0.00D+00 IRadAn=         4 IDoV= 1 UseB2=F ITyADJ=14
 ICtDFT=  3500011 ScaDFX=  1.000000  1.000000  1.000000  1.000000
 FoFCou: FMM=F IPFlag=           0 FMFlag=      100000 FMFlg1=           0
         NFxFlg=           0 DoJE=T BraDBF=F KetDBF=T FulRan=T
         wScrn=  0.000000 ICntrl=     500 IOpCl=  0 I1Cent=   200000004 NGrid=           0
         NMat0=    1 NMatS0=      1 NMatT0=    0 NMatD0=    1 NMtDS0=    0 NMtDT0=    0
 Petite list used in FoFCou.
 Requested convergence on RMS density matrix=1.00D-08 within 128 cycles.
 Requested convergence on MAX density matrix=1.00D-06.
 Requested convergence on             energy=1.00D-06.
 No special actions if energy rises.
 EnCoef did     4 forward-backward iterations
