 Entering Gaussian System, Link 0=g16
 Input=mex.com
 Output=mex.out
 Initial command:
 /usr/local/apps/gaussian/g16-b01-avx2//g16/l1.exe "/tmp/r2532.822175.maple/Gau-733.inp" -scrdir="/tmp/r2532.822175.maple/"
 Entering Link 1 = /usr/local/apps/gaussian/g16-b01-avx2//g16/l1.exe PID=       734.
  
 Copyright (c) 1988-2017, Gaussian, Inc.  All Rights Reserved.
  
 This is part of the Gaussian(R) 16 program.  It is based on
 the Gaussian(R) 09 system (copyright 2009, Gaussian, Inc.),
 the Gaussian(R) 03 system (copyright 2003, Gaussian, Inc.),
 the Gaussian(R) 98 system (copyright 1998, Gaussian, Inc.),
 the Gaussian(R) 94 system (copyright 1995, Gaussian, Inc.),
 the Gaussian 92(TM) system (copyright 1992, Gaussian, Inc.),
 the Gaussian 90(TM) system (copyright 1990, Gaussian, Inc.),
 the Gaussian 88(TM) system (copyright 1988, Gaussian, Inc.),
 the Gaussian 86(TM) system (copyright 1986, Carnegie Mellon
 University), and the Gaussian 82(TM) system (copyright 1983,
 Carnegie Mellon University). Gaussian is a federally registered
 trademark of Gaussian, Inc.
  
 This software contains proprietary and confidential information,
 including trade secrets, belonging to Gaussian, Inc.
  
 This software is provided under written license and may be
 used, copied, transmitted, or stored only in accord with that
 written license.
  
 The following legend is applicable only to US Government
 contracts under FAR:
  
                    RESTRICTED RIGHTS LEGEND
  
 Use, reproduction and disclosure by the US Government is
 subject to restrictions as set forth in subparagraphs (a)
 and (c) of the Commercial Computer Software - Restricted
 Rights clause in FAR 52.227-19.
  
 Gaussian, Inc.
 340 Quinnipiac St., Bldg. 40, Wallingford CT 06492
  
  
 ---------------------------------------------------------------
 Warning -- This program may not be used in any manner that
 competes with the business of Gaussian, Inc. or will provide
 assistance to any competitor of Gaussian, Inc.  The licensee
 of this program is prohibited from giving any competitor of
 Gaussian, Inc. access to this program.  By using this program,
 the user acknowledges that Gaussian, Inc. is engaged in the
 business of creating and licensing software in the field of
 computational chemistry and represents and warrants to the
 licensee that it is not a competitor of Gaussian, Inc. and that
 it will not use this program in any manner prohibited above.
 ---------------------------------------------------------------
  

 Cite this work as:
 Gaussian 16, Revision B.01,
 M. J. Frisch, G. W. Trucks, H. B. Schlegel, G. E. Scuseria, 
 M. A. Robb, J. R. Cheeseman, G. Scalmani, V. Barone, 
 G. A. Petersson, H. Nakatsuji, X. Li, M. Caricato, A. V. Marenich, 
 J. Bloino, B. G. Janesko, R. Gomperts, B. Mennucci, H. P. Hratchian, 
 J. V. Ortiz, A. F. Izmaylov, J. L. Sonnenberg, D. Williams-Young, 
 F. Ding, F. Lipparini, F. Egidi, J. Goings, B. Peng, A. Petrone, 
 T. Henderson, D. Ranasinghe, V. G. Zakrzewski, J. Gao, N. Rega, 
 G. Zheng, W. Liang, M. Hada, M. Ehara, K. Toyota, R. Fukuda, 
 J. Hasegawa, M. Ishida, T. Nakajima, Y. Honda, O. Kitao, H. Nakai, 
 T. Vreven, K. Throssell, J. A. Montgomery, Jr., J. E. Peralta, 
 F. Ogliaro, M. J. Bearpark, J. J. Heyd, E. N. Brothers, K. N. Kudin, 
 V. N. Staroverov, T. A. Keith, R. Kobayashi, J. Normand, 
 K. Raghavachari, A. P. Rendell, J. C. Burant, S. S. Iyengar, 
 J. Tomasi, M. Cossi, J. M. Millam, M. Klene, C. Adamo, R. Cammi, 
 J. W. Ochterski, R. L. Martin, K. Morokuma, O. Farkas, 
 J. B. Foresman, and D. J. Fox, Gaussian, Inc., Wallingford CT, 2016.
 
 ******************************************
 Gaussian 16:  ES64L-G16RevB.01 20-Dec-2017
                 4-Jun-2021 
 ******************************************
 %mem=8gb
 ---------------------------------------------------------------------
 #N TD(NStates=10)CAM-B3lYP/6-311G(d,p) SCRF=(Solvent=Dichloromethane)
 ---------------------------------------------------------------------
 1/38=1,172=1/1;
 2/12=2,17=6,18=5,40=1/2;
 3/5=4,6=6,7=101,11=9,25=1,30=1,70=2201,72=9,74=-40/1,2,3,8;
 4//1;
 5/5=2,38=5,53=9/2;
 8/6=1,10=2,108=10/1;
 9/41=10,42=1,70=2/14;
 6/7=2,8=2,9=2,10=2/1;
 99/5=1,9=1/99;
 ----
 Name
 ----
 Symbolic Z-matrix:
 Charge =  0 Multiplicity = 1
 6                    -7.54656   1.28031   2.6831 
 6                    -8.59284   0.80025   1.67846 
 6                    -7.98235   0.25077   0.55953 
 6                    -6.56003   0.31217   0.72128 
 16                   -5.13957  -0.12657  -0.15444 
 6                    -4.11068   0.4976    1.15417 
 6                    -4.88606   1.00911   2.18405 
 6                    -6.26721   0.90307   1.93847 
 1                    -4.43472   1.43657   3.06607 
 6                    -2.66474   0.42197   1.03683 
 6                    -2.033    -0.18067  -0.03872 
 6                    -0.63086  -0.25993  -0.18826 
 6                     0.27148   0.24855   0.72708 
 6                    -0.32531   0.88604   1.87025 
 7                     0.34172   1.43228   2.88941 
 16                   -0.76461   2.00935   3.9457 
 7                    -2.13753   1.5848    3.1562 
 6                    -1.7736    0.97165   2.02909 
 6                     1.72791   0.12979   0.53474 
 6                     2.6277    1.12709   0.94941 
 6                     3.98947   1.01524   0.71634 
 6                     4.52046  -0.10516   0.05667 
 6                     3.63088  -1.11158  -0.35387 
 6                     2.27135  -0.99257  -0.11446 
 1                     1.61859  -1.79985  -0.426 
 1                     4.01251  -1.99078  -0.85704 
 7                     5.90597  -0.21808  -0.18318 
 6                     6.54171  -1.49099  -0.1626 
 6                     7.45228  -1.84959  -1.16461 
 6                     8.08     -3.08788  -1.14278 
 6                     7.81446  -4.02236  -0.12908 
 6                     6.90281  -3.64961   0.87124 
 6                     6.28186  -2.40695   0.86377 
 1                     5.59547  -2.13832   1.65775 
 1                     6.69846  -4.33368   1.68738 
 6                     8.43148  -5.37235  -0.12359 
 6                     7.65544  -6.505     0.18419 
 6                     8.17534  -7.78766   0.17935 
 6                     9.52092  -7.9917   -0.14652 
 6                     10.32216  -6.89079  -0.44919 
 6                     9.78101  -5.60366  -0.43655 
 8                     10.63086  -4.56749  -0.77251 
 6                     11.17461  -3.85486   0.34196 
 1                     11.76885  -4.52187   0.97704 
 1                     11.81864  -3.07957  -0.07252 
 1                     10.38578  -3.39024   0.94155 
 1                     11.36699  -6.98996  -0.7089 
 8                     9.95073  -9.28402  -0.14462 
 6                     11.3039  -9.54734  -0.48928 
 1                     11.41934  -10.62851  -0.43474 
 1                     11.53197  -9.20921  -1.50608 
 1                     11.99721  -9.07373   0.21479 
 1                     7.55721  -8.6482    0.40295 
 1                     6.603    -6.36838   0.40502 
 1                     8.7765   -3.34401  -1.92978 
 1                     7.6608   -1.15274  -1.96744 
 6                     6.68419   0.93876  -0.47747 
 6                     7.92403   1.13789   0.14191 
 6                     8.69214   2.25591  -0.15308 
 6                     8.25176   3.22435  -1.06829 
 6                     7.00285   3.01772  -1.67325 
 6                     6.23404   1.8943   -1.39461 
 1                     5.27614   1.75911  -1.88237 
 1                     6.62294   3.75359  -2.37299 
 6                     9.07436   4.40407  -1.43832 
 6                     9.74153   5.20481  -0.48801 
 6                     10.49042   6.32069  -0.87975 
 6                     10.58911   6.65654  -2.23319 
 6                     9.93879   5.87832  -3.19152 
 6                     9.20075   4.77855  -2.78304 
 1                     8.71441   4.16688  -3.53423 
 1                     10.03233   6.14434  -4.2365 
 8                     11.29944   7.72032  -2.7049 
 6                     11.98548   8.55072  -1.78071 
 1                     12.74533   7.9914   -1.22289 
 1                     12.4738   9.31926  -2.37762 
 1                     11.29419   9.02763  -1.07644 
 1                     10.98609   6.92239  -0.13449 
 8                     9.60272   4.84075   0.8206 
 6                     10.18347   5.64735   1.83329 
 1                     11.27563   5.6807    1.74829 
 1                     9.78476   6.66773   1.81342 
 1                     9.91281   5.17601   2.77681 
 1                     9.6461    2.38607   0.33983 
 1                     8.28588   0.40521   0.8534 
 1                     4.65463   1.80255   1.04771 
 1                     2.25591   1.99886   1.46887 
 1                    -0.2525   -0.72702  -1.0894 
 1                    -2.636    -0.61438  -0.82843 
 16                   -9.12379  -0.30554  -0.60542 
 6                    -10.46958   0.21283   0.42408 
 6                    -9.994     0.77727   1.5999 
 1                    -10.6534   1.17449   2.35995 
 6                    -11.84609   0.0265    0.00297 
 6                    -12.91105   0.18829   0.91453 
 6                    -14.2207   0.01977   0.51357 
 6                    -14.55361  -0.32748  -0.81418 
 6                    -13.48823  -0.49537  -1.72485 
 6                    -12.17879  -0.32003  -1.32517 
 1                    -11.39185  -0.44104  -2.06047 
 1                    -13.68379  -0.75868  -2.7551 
 6                    -15.95197  -0.48436  -1.12877 
 6                    -16.59811  -0.8011   -2.28498 
 6                    -15.96947  -1.06519  -3.53045 
 7                    -15.5442  -1.29491  -4.58391 
 6                    -18.10357  -0.87839  -2.24275 
 8                    -18.73802  -0.67251  -1.24304 
 8                    -18.72331  -1.19529  -3.39914 
 1                    -18.08775  -1.33222  -4.11588 
 1                    -16.63723  -0.32316  -0.30036 
 1                    -15.01849   0.14807   1.23717 
 1                    -12.7047   0.43079   1.94917 
 6                    -7.63727   2.80425   2.9116 
 1                    -7.55861   3.34721   1.96768 
 1                    -8.58932   3.06642   3.38145 
 1                    -6.83151   3.14023   3.56951 
 6                    -7.66091   0.52423   4.0242 
 1                    -7.60261  -0.55531   3.87171 
 1                    -6.85302   0.81979   4.69878 
 1                    -8.61149   0.75222   4.51444 
 
 Stoichiometry    C61H46N4O6S3
 Framework group  C1[X(C61H46N4O6S3)]
 Deg. of freedom   354
 Full point group                 C1      NOp   1
 Largest Abelian subgroup         C1      NOp   1
 Largest concise Abelian subgroup C1      NOp   1
                         Standard orientation:                         
 ---------------------------------------------------------------------
 Center     Atomic      Atomic             Coordinates (Angstroms)
 Number     Number       Type             X           Y           Z
 ---------------------------------------------------------------------
      1          6           0        7.546561   -1.280310    2.683097
      2          6           0        8.592842   -0.800254    1.678459
      3          6           0        7.982348   -0.250768    0.559527
      4          6           0        6.560027   -0.312166    0.721275
      5         16           0        5.139569    0.126570   -0.154442
      6          6           0        4.110677   -0.497597    1.154165
      7          6           0        4.886064   -1.009111    2.184047
      8          6           0        6.267212   -0.903068    1.938473
      9          1           0        4.434723   -1.436566    3.066072
     10          6           0        2.664740   -0.421969    1.036834
     11          6           0        2.033004    0.180668   -0.038723
     12          6           0        0.630861    0.259925   -0.188264
     13          6           0       -0.271476   -0.248550    0.727084
     14          6           0        0.325305   -0.886039    1.870252
     15          7           0       -0.341718   -1.432283    2.889414
     16         16           0        0.764611   -2.009353    3.945696
     17          7           0        2.137532   -1.584801    3.156203
     18          6           0        1.773595   -0.971653    2.029089
     19          6           0       -1.727905   -0.129793    0.534743
     20          6           0       -2.627700   -1.127090    0.949407
     21          6           0       -3.989468   -1.015240    0.716343
     22          6           0       -4.520458    0.105162    0.056672
     23          6           0       -3.630876    1.111584   -0.353867
     24          6           0       -2.271351    0.992571   -0.114460
     25          1           0       -1.618590    1.799849   -0.426000
     26          1           0       -4.012512    1.990779   -0.857038
     27          7           0       -5.905965    0.218076   -0.183178
     28          6           0       -6.541714    1.490986   -0.162595
     29          6           0       -7.452277    1.849593   -1.164607
     30          6           0       -8.080003    3.087880   -1.142777
     31          6           0       -7.814461    4.022365   -0.129081
     32          6           0       -6.902809    3.649608    0.871239
     33          6           0       -6.281857    2.406948    0.863770
     34          1           0       -5.595470    2.138317    1.657746
     35          1           0       -6.698462    4.333679    1.687379
     36          6           0       -8.431479    5.372355   -0.123591
     37          6           0       -7.655440    6.504999    0.184186
     38          6           0       -8.175336    7.787662    0.179345
     39          6           0       -9.520917    7.991698   -0.146516
     40          6           0      -10.322163    6.890794   -0.449187
     41          6           0       -9.781010    5.603663   -0.436548
     42          8           0      -10.630860    4.567494   -0.772508
     43          6           0      -11.174607    3.854858    0.341958
     44          1           0      -11.768846    4.521873    0.977035
     45          1           0      -11.818644    3.079567   -0.072520
     46          1           0      -10.385781    3.390238    0.941552
     47          1           0      -11.366991    6.989955   -0.708897
     48          8           0       -9.950727    9.284025   -0.144623
     49          6           0      -11.303899    9.547345   -0.489284
     50          1           0      -11.419341   10.628514   -0.434744
     51          1           0      -11.531966    9.209206   -1.506079
     52          1           0      -11.997205    9.073730    0.214791
     53          1           0       -7.557214    8.648199    0.402949
     54          1           0       -6.602998    6.368378    0.405019
     55          1           0       -8.776499    3.344012   -1.929784
     56          1           0       -7.660802    1.152742   -1.967442
     57          6           0       -6.684190   -0.938764   -0.477466
     58          6           0       -7.924033   -1.137885    0.141914
     59          6           0       -8.692136   -2.255911   -0.153082
     60          6           0       -8.251760   -3.224345   -1.068286
     61          6           0       -7.002848   -3.017724   -1.673254
     62          6           0       -6.234035   -1.894297   -1.394612
     63          1           0       -5.276141   -1.759105   -1.882366
     64          1           0       -6.622935   -3.753594   -2.372990
     65          6           0       -9.074355   -4.404066   -1.438322
     66          6           0       -9.741533   -5.204812   -0.488005
     67          6           0      -10.490422   -6.320690   -0.879745
     68          6           0      -10.589114   -6.656541   -2.233187
     69          6           0       -9.938791   -5.878317   -3.191525
     70          6           0       -9.200749   -4.778553   -2.783035
     71          1           0       -8.714408   -4.166883   -3.534234
     72          1           0      -10.032331   -6.144342   -4.236502
     73          8           0      -11.299441   -7.720324   -2.704903
     74          6           0      -11.985477   -8.550716   -1.780708
     75          1           0      -12.745332   -7.991399   -1.222891
     76          1           0      -12.473802   -9.319260   -2.377619
     77          1           0      -11.294191   -9.027627   -1.076442
     78          1           0      -10.986088   -6.922385   -0.134488
     79          8           0       -9.602716   -4.840751    0.820595
     80          6           0      -10.183472   -5.647349    1.833286
     81          1           0      -11.275635   -5.680701    1.748293
     82          1           0       -9.784755   -6.667732    1.813423
     83          1           0       -9.912805   -5.176009    2.776807
     84          1           0       -9.646101   -2.386068    0.339831
     85          1           0       -8.285881   -0.405206    0.853395
     86          1           0       -4.654626   -1.802552    1.047713
     87          1           0       -2.255914   -1.998856    1.468874
     88          1           0        0.252500    0.727024   -1.089395
     89          1           0        2.635999    0.614377   -0.828430
     90         16           0        9.123789    0.305543   -0.605419
     91          6           0       10.469575   -0.212829    0.424075
     92          6           0        9.994005   -0.777274    1.599899
     93          1           0       10.653402   -1.174492    2.359953
     94          6           0       11.846087   -0.026495    0.002967
     95          6           0       12.911052   -0.188287    0.914530
     96          6           0       14.220700   -0.019765    0.513571
     97          6           0       14.553611    0.327482   -0.814183
     98          6           0       13.488229    0.495374   -1.724850
     99          6           0       12.178791    0.320031   -1.325168
    100          1           0       11.391855    0.441040   -2.060468
    101          1           0       13.683793    0.758683   -2.755101
    102          6           0       15.951965    0.484358   -1.128773
    103          6           0       16.598111    0.801101   -2.284978
    104          6           0       15.969472    1.065192   -3.530449
    105          7           0       15.544201    1.294906   -4.583914
    106          6           0       18.103574    0.878389   -2.242749
    107          8           0       18.738018    0.672509   -1.243038
    108          8           0       18.723307    1.195286   -3.399137
    109          1           0       18.087752    1.332222   -4.115879
    110          1           0       16.637229    0.323158   -0.300363
    111          1           0       15.018492   -0.148074    1.237166
    112          1           0       12.704703   -0.430789    1.949174
    113          6           0        7.637268   -2.804247    2.911604
    114          1           0        7.558605   -3.347206    1.967676
    115          1           0        8.589316   -3.066421    3.381452
    116          1           0        6.831512   -3.140233    3.569513
    117          6           0        7.660911   -0.524229    4.024198
    118          1           0        7.602613    0.555306    3.871714
    119          1           0        6.853024   -0.819794    4.698782
    120          1           0        8.611489   -0.752222    4.514437
 ---------------------------------------------------------------------
 Rotational constants (GHZ):           0.0298996           0.0053444           0.0048132
 Standard basis: 6-311G(d,p) (5D, 7F)
 There are  1706 symmetry adapted cartesian basis functions of A   symmetry.
 There are  1632 symmetry adapted basis functions of A   symmetry.
  1632 basis functions,  2778 primitive gaussians,  1706 cartesian basis functions
   268 alpha electrons      268 beta electrons
       nuclear repulsion energy     10029.7007763290 Hartrees.
 NAtoms=  120 NActive=  120 NUniq=  120 SFac= 1.00D+00 NAtFMM=   60 NAOKFM=T Big=T
 Integral buffers will be    131072 words long.
 Raffenetti 1 integral format.
 Two-electron integral symmetry is turned on.
 ------------------------------------------------------------------------------
 Polarizable Continuum Model (PCM)
 =================================
 Model                : PCM.
 Atomic radii         : UFF (Universal Force Field).
 Polarization charges : Total charges.
 Charge compensation  : None.
 Solution method      : On-the-fly selection.
 Cavity type          : Scaled VdW (van der Waals Surface) (Alpha=1.100).
 Cavity algorithm     : GePol (No added spheres)
                        Default sphere list used, NSphG=  120.
                        Lebedev-Laikov grids with approx.  5.0 points / Ang**2.
                        Smoothing algorithm: York/Karplus (Gamma=1.0000).
                        Polarization charges: spherical gaussians, with
                                              point-specific exponents (IZeta= 3).
                        Self-potential: point-specific (ISelfS= 7).
                        Self-field    : sphere-specific E.n sum rule (ISelfD= 2).
 Solvent              : Dichloromethane, Eps=   8.930000 Eps(inf)=   2.028346
 ------------------------------------------------------------------------------
 One-electron integrals computed using PRISM.
 NBasis=  1632 RedAO= T EigKep=  1.15D-04  NBF=  1632
 NBsUse=  1632 1.00D-06 EigRej= -1.00D+00 NBFU=  1632
 ExpMin= 7.71D-02 ExpMax= 9.34D+04 ExpMxC= 3.17D+03 IAcc=3 IRadAn=         5 AccDes= 0.00D+00
 Harris functional with IExCor=20419 and IRadAn=       5 diagonalized for initial guess.
 HarFok:  IExCor=20419 AccDes= 0.00D+00 IRadAn=         5 IDoV= 1 UseB2=F ITyADJ=14
 ICtDFT=  3500011 ScaDFX=  1.000000  1.000000  1.000000  1.000000
 FoFCou: FMM=F IPFlag=           0 FMFlag=      100000 FMFlg1=        2001
         NFxFlg=           0 DoJE=T BraDBF=F KetDBF=T FulRan=T
         wScrn=  0.000000 ICntrl=       500 IOpCl=  0 I1Cent=   200000004 NGrid=           0
         NMat0=    1 NMatS0=      1 NMatT0=    0 NMatD0=    1 NMtDS0=    0 NMtDT0=    0
 Petite list used in FoFCou.
 Requested convergence on RMS density matrix=1.00D-08 within 128 cycles.
 Requested convergence on MAX density matrix=1.00D-06.
 Requested convergence on             energy=1.00D-06.
 No special actions if energy rises.
 Inv3:  Mode=1 IEnd=   236669772.
 Iteration    1 A*A^-1 deviation from unit magnitude is 4.88D-15 for   8307.
 Iteration    1 A*A^-1 deviation from orthogonality  is 3.55D-15 for   8348   6302.
 Iteration    1 A^-1*A deviation from unit magnitude is 4.11D-15 for   8294.
 Iteration    1 A^-1*A deviation from orthogonality  is 1.41D-14 for   8415   8391.
 Error on total polarization charges =  0.02946
 SCF Done:  E(RCAM-B3LYP) =  -4216.26791533     A.U. after   16 cycles
            NFock= 16  Conv=0.48D-08     -V/T= 2.0029
 DoSCS=F DFT=T ScalE2(SS,OS)=  1.000000  1.000000
 ExpMin= 7.71D-02 ExpMax= 9.34D+04 ExpMxC= 3.17D+03 IAcc=3 IRadAn=         5 AccDes= 0.00D+00
 HarFok:  IExCor=  205 AccDes= 0.00D+00 IRadAn=         5 IDoV=-2 UseB2=F ITyADJ=14
 ICtDFT= 12500011 ScaDFX=  1.000000  1.000000  1.000000  1.000000
 GSVD:  LWork=       -8084 too small for GESVD, short by       38270 words or       38270 for optimal perf.
 Range of M.O.s used for correlation:    87  1632
 NBasis=  1632 NAE=   268 NBE=   268 NFC=    86 NFV=     0
 NROrb=   1546 NOA=   182 NOB=   182 NVA=  1364 NVB=  1364

 **** Warning!!: The largest alpha MO coefficient is  0.17206899D+02

 NEqPCM:  Using non-equilibrium solvation (IEInf=1, Eps=   8.9300, EpsInf=   2.0283)
 Inv3:  Mode=1 IEnd=   236669772.
 Iteration    1 A*A^-1 deviation from unit magnitude is 4.33D-15 for   5426.
 Iteration    1 A*A^-1 deviation from orthogonality  is 2.81D-15 for   6350   1121.
 Iteration    1 A^-1*A deviation from unit magnitude is 4.00D-15 for   8786.
 Iteration    1 A^-1*A deviation from orthogonality  is 6.52D-15 for   7967   7926.
 Orbital symmetries:
       Occupied  (A) (A) (A) (A) (A) (A) (A) (A) (A) (A) (A) (A)
                 (A) (A) (A) (A) (A) (A) (A) (A) (A) (A) (A) (A)
                 (A) (A) (A) (A) (A) (A) (A) (A) (A) (A) (A) (A)
                 (A) (A) (A) (A) (A) (A) (A) (A) (A) (A) (A) (A)
                 (A) (A) (A) (A) (A) (A) (A) (A) (A) (A) (A) (A)
                 (A) (A) (A) (A) (A) (A) (A) (A) (A) (A) (A) (A)
                 (A) (A) (A) (A) (A) (A) (A) (A) (A) (A) (A) (A)
                 (A) (A) (A) (A) (A) (A) (A) (A) (A) (A) (A) (A)
                 (A) (A) (A) (A) (A) (A) (A) (A) (A) (A) (A) (A)
                 (A) (A) (A) (A) (A) (A) (A) (A) (A) (A) (A) (A)
                 (A) (A) (A) (A) (A) (A) (A) (A) (A) (A) (A) (A)
                 (A) (A) (A) (A) (A) (A) (A) (A) (A) (A) (A) (A)
                 (A) (A) (A) (A) (A) (A) (A) (A) (A) (A) (A) (A)
                 (A) (A) (A) (A) (A) (A) (A) (A) (A) (A) (A) (A)
                 (A) (A) (A) (A) (A) (A) (A) (A) (A) (A) (A) (A)
                 (A) (A) (A) (A) (A) (A) (A) (A) (A) (A) (A) (A)
                 (A) (A) (A) (A) (A) (A) (A) (A) (A) (A) (A) (A)
                 (A) (A) (A) (A) (A) (A) (A) (A) (A) (A) (A) (A)
                 (A) (A) (A) (A) (A) (A) (A) (A) (A) (A) (A) (A)
                 (A) (A) (A) (A) (A) (A) (A) (A) (A) (A) (A) (A)
                 (A) (A) (A) (A) (A) (A) (A) (A) (A) (A) (A) (A)
                 (A) (A) (A) (A) (A) (A) (A) (A) (A) (A) (A) (A)
                 (A) (A) (A) (A)
       Virtual   (A) (A) (A) (A) (A) (A) (A) (A) (A) (A) (A) (A)
                 (A) (A) (A) (A) (A) (A) (A) (A) (A) (A) (A) (A)
                 (A) (A) (A) (A) (A) (A) (A) (A) (A) (A) (A) (A)
                 (A) (A) (A) (A) (A) (A) (A) (A) (A) (A) (A) (A)
                 (A) (A) (A) (A) (A) (A) (A) (A) (A) (A) (A) (A)
                 (A) (A) (A) (A) (A) (A) (A) (A) (A) (A) (A) (A)
                 (A) (A) (A) (A) (A) (A) (A) (A) (A) (A) (A) (A)
                 (A) (A) (A) (A) (A) (A) (A) (A) (A) (A) (A) (A)
                 (A) (A) (A) (A) (A) (A) (A) (A) (A) (A) (A) (A)
                 (A) (A) (A) (A) (A) (A) (A) (A) (A) (A) (A) (A)
                 (A) (A) (A) (A) (A) (A) (A) (A) (A) (A) (A) (A)
                 (A) (A) (A) (A) (A) (A) (A) (A) (A) (A) (A) (A)
                 (A) (A) (A) (A) (A) (A) (A) (A) (A) (A) (A) (A)
                 (A) (A) (A) (A) (A) (A) (A) (A) (A) (A) (A) (A)
                 (A) (A) (A) (A) (A) (A) (A) (A) (A) (A) (A) (A)
                 (A) (A) (A) (A) (A) (A) (A) (A) (A) (A) (A) (A)
                 (A) (A) (A) (A) (A) (A) (A) (A) (A) (A) (A) (A)
                 (A) (A) (A) (A) (A) (A) (A) (A) (A) (A) (A) (A)
                 (A) (A) (A) (A) (A) (A) (A) (A) (A) (A) (A) (A)
                 (A) (A) (A) (A) (A) (A) (A) (A) (A) (A) (A) (A)
                 (A) (A) (A) (A) (A) (A) (A) (A) (A) (A) (A) (A)
                 (A) (A) (A) (A) (A) (A) (A) (A) (A) (A) (A) (A)
                 (A) (A) (A) (A) (A) (A) (A) (A) (A) (A) (A) (A)
                 (A) (A) (A) (A) (A) (A) (A) (A) (A) (A) (A) (A)
                 (A) (A) (A) (A) (A) (A) (A) (A) (A) (A) (A) (A)
                 (A) (A) (A) (A) (A) (A) (A) (A) (A) (A) (A) (A)
                 (A) (A) (A) (A) (A) (A) (A) (A) (A) (A) (A) (A)
                 (A) (A) (A) (A) (A) (A) (A) (A) (A) (A) (A) (A)
                 (A) (A) (A) (A) (A) (A) (A) (A) (A) (A) (A) (A)
                 (A) (A) (A) (A) (A) (A) (A) (A) (A) (A) (A) (A)
                 (A) (A) (A) (A) (A) (A) (A) (A) (A) (A) (A) (A)
                 (A) (A) (A) (A) (A) (A) (A) (A) (A) (A) (A) (A)
                 (A) (A) (A) (A) (A) (A) (A) (A) (A) (A) (A) (A)
                 (A) (A) (A) (A) (A) (A) (A) (A) (A) (A) (A) (A)
                 (A) (A) (A) (A) (A) (A) (A) (A) (A) (A) (A) (A)
                 (A) (A) (A) (A) (A) (A) (A) (A) (A) (A) (A) (A)
                 (A) (A) (A) (A) (A) (A) (A) (A) (A) (A) (A) (A)
                 (A) (A) (A) (A) (A) (A) (A) (A) (A) (A) (A) (A)
                 (A) (A) (A) (A) (A) (A) (A) (A) (A) (A) (A) (A)
                 (A) (A) (A) (A) (A) (A) (A) (A) (A) (A) (A) (A)
                 (A) (A) (A) (A) (A) (A) (A) (A) (A) (A) (A) (A)
                 (A) (A) (A) (A) (A) (A) (A) (A) (A) (A) (A) (A)
                 (A) (A) (A) (A) (A) (A) (A) (A) (A) (A) (A) (A)
                 (A) (A) (A) (A) (A) (A) (A) (A) (A) (A) (A) (A)
                 (A) (A) (A) (A) (A) (A) (A) (A) (A) (A) (A) (A)
                 (A) (A) (A) (A) (A) (A) (A) (A) (A) (A) (A) (A)
                 (A) (A) (A) (A) (A) (A) (A) (A) (A) (A) (A) (A)
                 (A) (A) (A) (A) (A) (A) (A) (A) (A) (A) (A) (A)
                 (A) (A) (A) (A) (A) (A) (A) (A) (A) (A) (A) (A)
                 (A) (A) (A) (A) (A) (A) (A) (A) (A) (A) (A) (A)
                 (A) (A) (A) (A) (A) (A) (A) (A) (A) (A) (A) (A)
                 (A) (A) (A) (A) (A) (A) (A) (A) (A) (A) (A) (A)
                 (A) (A) (A) (A) (A) (A) (A) (A) (A) (A) (A) (A)
                 (A) (A) (A) (A) (A) (A) (A) (A) (A) (A) (A) (A)
                 (A) (A) (A) (A) (A) (A) (A) (A) (A) (A) (A) (A)
                 (A) (A) (A) (A) (A) (A) (A) (A) (A) (A) (A) (A)
                 (A) (A) (A) (A) (A) (A) (A) (A) (A) (A) (A) (A)
                 (A) (A) (A) (A) (A) (A) (A) (A) (A) (A) (A) (A)
                 (A) (A) (A) (A) (A) (A) (A) (A) (A) (A) (A) (A)
                 (A) (A) (A) (A) (A) (A) (A) (A) (A) (A) (A) (A)
                 (A) (A) (A) (A) (A) (A) (A) (A) (A) (A) (A) (A)
                 (A) (A) (A) (A) (A) (A) (A) (A) (A) (A) (A) (A)
                 (A) (A) (A) (A) (A) (A) (A) (A) (A) (A) (A) (A)
                 (A) (A) (A) (A) (A) (A) (A) (A) (A) (A) (A) (A)
                 (A) (A) (A) (A) (A) (A) (A) (A) (A) (A) (A) (A)
                 (A) (A) (A) (A) (A) (A) (A) (A) (A) (A) (A) (A)
                 (A) (A) (A) (A) (A) (A) (A) (A) (A) (A) (A) (A)
                 (A) (A) (A) (A) (A) (A) (A) (A) (A) (A) (A) (A)
                 (A) (A) (A) (A) (A) (A) (A) (A) (A) (A) (A) (A)
                 (A) (A) (A) (A) (A) (A) (A) (A) (A) (A) (A) (A)
                 (A) (A) (A) (A) (A) (A) (A) (A) (A) (A) (A) (A)
                 (A) (A) (A) (A) (A) (A) (A) (A) (A) (A) (A) (A)
                 (A) (A) (A) (A) (A) (A) (A) (A) (A) (A) (A) (A)
                 (A) (A) (A) (A) (A) (A) (A) (A) (A) (A) (A) (A)
                 (A) (A) (A) (A) (A) (A) (A) (A) (A) (A) (A) (A)
                 (A) (A) (A) (A) (A) (A) (A) (A) (A) (A) (A) (A)
                 (A) (A) (A) (A) (A) (A) (A) (A) (A) (A) (A) (A)
                 (A) (A) (A) (A) (A) (A) (A) (A) (A) (A) (A) (A)
                 (A) (A) (A) (A) (A) (A) (A) (A) (A) (A) (A) (A)
                 (A) (A) (A) (A) (A) (A) (A) (A) (A) (A) (A) (A)
                 (A) (A) (A) (A) (A) (A) (A) (A) (A) (A) (A) (A)
                 (A) (A) (A) (A) (A) (A) (A) (A) (A) (A) (A) (A)
                 (A) (A) (A) (A) (A) (A) (A) (A) (A) (A) (A) (A)
                 (A) (A) (A) (A) (A) (A) (A) (A) (A) (A) (A) (A)
                 (A) (A) (A) (A) (A) (A) (A) (A) (A) (A) (A) (A)
                 (A) (A) (A) (A) (A) (A) (A) (A) (A) (A) (A) (A)
                 (A) (A) (A) (A) (A) (A) (A) (A) (A) (A) (A) (A)
                 (A) (A) (A) (A) (A) (A) (A) (A) (A) (A) (A) (A)
                 (A) (A) (A) (A) (A) (A) (A) (A) (A) (A) (A) (A)
                 (A) (A) (A) (A) (A) (A) (A) (A) (A) (A) (A) (A)
                 (A) (A) (A) (A) (A) (A) (A) (A) (A) (A) (A) (A)
                 (A) (A) (A) (A) (A) (A) (A) (A) (A) (A) (A) (A)
                 (A) (A) (A) (A) (A) (A) (A) (A) (A) (A) (A) (A)
                 (A) (A) (A) (A) (A) (A) (A) (A) (A) (A) (A) (A)
                 (A) (A) (A) (A) (A) (A) (A) (A) (A) (A) (A) (A)
                 (A) (A) (A) (A) (A) (A) (A) (A) (A) (A) (A) (A)
                 (A) (A) (A) (A) (A) (A) (A) (A) (A) (A) (A) (A)
                 (A) (A) (A) (A) (A) (A) (A) (A) (A) (A) (A) (A)
                 (A) (A) (A) (A) (A) (A) (A) (A) (A) (A) (A) (A)
                 (A) (A) (A) (A) (A) (A) (A) (A) (A) (A) (A) (A)
                 (A) (A) (A) (A) (A) (A) (A) (A) (A) (A) (A) (A)
                 (A) (A) (A) (A) (A) (A) (A) (A) (A) (A) (A) (A)
                 (A) (A) (A) (A) (A) (A) (A) (A) (A) (A) (A) (A)
                 (A) (A) (A) (A) (A) (A) (A) (A) (A) (A) (A) (A)
                 (A) (A) (A) (A) (A) (A) (A) (A) (A) (A) (A) (A)
                 (A) (A) (A) (A) (A) (A) (A) (A) (A) (A) (A) (A)
                 (A) (A) (A) (A) (A) (A) (A) (A) (A) (A) (A) (A)
                 (A) (A) (A) (A) (A) (A) (A) (A) (A) (A) (A) (A)
                 (A) (A) (A) (A) (A) (A) (A) (A) (A) (A) (A) (A)
                 (A) (A) (A) (A) (A) (A) (A) (A) (A) (A) (A) (A)
                 (A) (A) (A) (A) (A) (A) (A) (A) (A) (A) (A) (A)
                 (A) (A) (A) (A) (A) (A) (A) (A) (A) (A) (A) (A)
                 (A) (A) (A) (A) (A) (A) (A) (A) (A) (A) (A) (A)
                 (A) (A) (A) (A) (A) (A) (A) (A)
    40 initial guesses have been made.
 Convergence on wavefunction:    0.001000000000000
 Iteration     1 Dimension    40 NMult     0 NNew     40
 CISAX will form    40 AO SS matrices at one time.
 New state      2 was old state      3
 New state      3 was old state      4
 New state      4 was old state      2
 New state      5 was old state      8
 New state      7 was old state      5
 New state      8 was old state     14
 New state      9 was old state     16
 Iteration     2 Dimension    60 NMult    40 NNew     20
 New state      4 was old state      5
 New state      5 was old state      4
 New state      7 was old state      8
 New state      8 was old state      9
 New state      9 was old state     10
 New state     10 was old state      7
 Iteration     3 Dimension    80 NMult    60 NNew     20
 New state      6 was old state      7
 New state      7 was old state      6
 Iteration     4 Dimension   100 NMult    80 NNew     20
 Iteration     5 Dimension   120 NMult   100 NNew     20
 Iteration     6 Dimension   136 NMult   120 NNew     16
 Iteration     7 Dimension   146 NMult   136 NNew     10
 Iteration     8 Dimension   154 NMult   146 NNew      8
 Iteration     9 Dimension   160 NMult   154 NNew      6
 Iteration    10 Dimension   164 NMult   160 NNew      4
 Iteration    11 Dimension   166 NMult   164 NNew      2
 Iteration    12 Dimension   168 NMult   166 NNew      2
 Iteration    13 Dimension   170 NMult   168 NNew      2
 Iteration    14 Dimension   172 NMult   170 NNew      2
 Convergence on energies, max DE= 5.72D-06.
 ***********************************************************************
 Excited states from <AA,BB:AA,BB> singles matrix:
 ***********************************************************************
 
 Ground to excited state transition densities written to RWF  633
 Ground to excited state transition electric dipole moments (Au):
       state          X           Y           Z        Dip. S.      Osc.
         1        -6.2136     -0.1758      0.6117     39.0141      2.2434
         2         1.2790      0.5910     -1.3952      3.9316      0.2778
         3        -0.9336      0.1002     -0.1146      0.8949      0.0721
         4         0.3048     -0.2793      0.7342      0.7098      0.0654
         5        -1.5623      0.1220      0.0156      2.4560      0.2335
         6        -0.1083      3.0757      0.3501      9.5939      0.9493
         7        -0.0150      0.0573     -0.3767      0.1454      0.0145
         8         2.2823      0.0484      0.5715      5.5379      0.5639
         9         0.3705      0.7193     -0.2507      0.7175      0.0744
        10        -1.2520     -0.3407      0.8137      2.3457      0.2501
 Ground to excited state transition velocity dipole moments (Au):
       state          X           Y           Z        Dip. S.      Osc.
         1         0.5316      0.0144     -0.0521      0.2855      2.2067
         2        -0.1274     -0.0625      0.1468      0.0417      0.2621
         3         0.1078     -0.0121      0.0140      0.0120      0.0660
         4        -0.0406      0.0401     -0.1020      0.0137      0.0659
         5         0.2210     -0.0176     -0.0032      0.0492      0.2299
         6         0.0160     -0.4539     -0.0542      0.2092      0.9398
         7         0.0024     -0.0095      0.0575      0.0034      0.0152
         8        -0.3455     -0.0091     -0.0856      0.1268      0.5535
         9        -0.0603     -0.1141      0.0518      0.0193      0.0829
        10         0.2001      0.0508     -0.1233      0.0578      0.2411
 Ground to excited state transition magnetic dipole moments (Au):
       state          X           Y           Z
         1         0.0623      2.4202      0.9016
         2         0.0643     -2.8856     -1.1128
         3         0.1128      0.6616      0.2366
         4        -0.0603      2.2040      0.6437
         5         0.1164      1.2168      0.5598
         6        -0.3662     -0.7610      5.0199
         7         0.0158     -1.1370     -0.5674
         8        -0.3690     -0.9273      0.4239
         9         0.1724      0.8116      0.1516
        10        -0.0486      2.5014      0.7486
 Ground to excited state transition velocity quadrupole moments (Au):
       state          XX          YY          ZZ          XY          XZ          YZ
         1        10.5488     -0.4661      0.1805      0.4893     -1.4023     -0.0787
         2       -14.1018     -0.3976     -0.1505     -1.1199      3.0502     -0.0630
         3        -1.3333     -0.7395      0.2944      0.4693     -1.1158     -0.2556
         4         7.4084      0.4297      0.6621      1.1683     -3.4125     -0.1886
         5         1.7416     -1.0460      0.2170      0.6235     -1.1566     -0.2141
         6        -0.2013     -1.1178      0.3146      8.5239      0.9449      0.6438
         7        -3.8023      0.1258     -0.1761     -0.7595      1.5514      0.0375
         8         6.0675      2.7932     -0.3277      0.6197      1.2839      0.6458
         9         1.3266      0.1832     -0.0394      2.0688     -0.5192      0.2897
        10         7.1761     -0.0501      0.2525      0.9037     -2.6915     -0.0135
 <0|del|b> * <b|rxdel|0> + <0|del|b> * <b|delr+rdel|0>
 Rotatory Strengths (R) in cgs (10**-40 erg-esu-cm/Gauss)
       state          XX          YY          ZZ    R(velocity)    E-M Angle
         1       -71.4961   -123.8206    367.3061     57.3298       89.13
         2       144.1566      2.9122    -88.4191     19.5499       89.20
         3       -34.0145    -54.5447    132.2162     14.5523       84.50
         4       103.6335    162.7065   -137.3415     42.9995       84.61
         5      -113.1041    -53.0333    178.4454      4.1027       89.52
         6        97.4455    462.5973   -237.2939    107.5829       88.33
         7      -120.5617     26.4661     -9.4041    -34.4999      107.14
         8      -160.4538   -182.6253    804.2728    153.7312       75.05
         9       -83.8377   -288.9521    -59.7486   -144.1795      144.22
        10       133.0420     14.8147    -36.8752     36.9939       87.71
 1/2[<0|r|b>*<b|rxdel|0> + (<0|rxdel|b>*<b|r|0>)*]
 Rotatory Strengths (R) in cgs (10**-40 erg-esu-cm/Gauss)
       state          XX          YY          ZZ     R(length)
         1       273.6899    300.8448   -389.9856     61.5164
         2       -58.1544   1205.9963  -1097.9534     16.6295
         3        74.4904    -46.9027     19.1766     15.5881
         4        12.9862    435.2461   -334.1844     38.0159
         5       128.5766   -105.0042     -6.1913      5.7937
         6       -28.0293   1655.1571  -1242.8125    128.1051
         7         0.1672     46.0680   -151.1435    -34.9694
         8       595.5243     31.7154   -171.3387    151.9670
         9       -45.1554   -412.8309     26.8843   -143.7007
        10       -43.0148    602.5890   -430.7817     42.9309
  1/2[<0|del|b>*<b|r|0> + (<0|r|b>*<b|del|0>)*] (Au)
       state          X           Y           Z        Dip. S.   Osc.(frdel)
         1        -3.3030     -0.0025     -0.0319      3.3374      2.2250
         2        -0.1630     -0.0369     -0.2047      0.4046      0.2698
         3        -0.1007     -0.0012     -0.0016      0.1035      0.0690
         4        -0.0124     -0.0112     -0.0749      0.0985      0.0656
         5        -0.3453     -0.0022     -0.0000      0.3475      0.2317
         6        -0.0017     -1.3961     -0.0190      1.4168      0.9445
         7        -0.0000     -0.0005     -0.0217      0.0222      0.0148
         8        -0.7886     -0.0004     -0.0489      0.8380      0.5587
         9        -0.0223     -0.0821     -0.0130      0.1174      0.0783
        10        -0.2505     -0.0173     -0.1004      0.3682      0.2455

 Excitation energies and oscillator strengths:
 
 Excited State   1:      Singlet-A      2.3470 eV  528.26 nm  f=2.2434  <S**2>=0.000
     264 -> 270       -0.12121
     265 -> 270        0.11239
     267 -> 269       -0.33448
     268 -> 269        0.51696
     268 -> 270        0.25800
 This state for optimization and/or second-order correction.
 Total Energy, E(TD-HF/TD-DFT) =  -4216.18166348    
 Copying the excited state density for this state as the 1-particle RhoCI density.
 
 Excited State   2:      Singlet-A      2.8841 eV  429.89 nm  f=0.2778  <S**2>=0.000
     264 -> 269       -0.15077
     265 -> 269        0.18035
     267 -> 269        0.32433
     267 -> 270       -0.18308
     268 -> 270        0.50525
     268 -> 271        0.12654
 
 Excited State   3:      Singlet-A      3.2908 eV  376.76 nm  f=0.0721  <S**2>=0.000
     267 -> 269        0.34920
     267 -> 270        0.48759
     268 -> 269        0.28254
 
 Excited State   4:      Singlet-A      3.7618 eV  329.59 nm  f=0.0654  <S**2>=0.000
     264 -> 269        0.16542
     264 -> 270       -0.14947
     265 -> 269       -0.10420
     265 -> 270        0.15289
     267 -> 269       -0.15646
     267 -> 270        0.17989
     267 -> 271       -0.27032
     268 -> 269       -0.12187
     268 -> 270        0.11307
     268 -> 271        0.42688
 
 Excited State   5:      Singlet-A      3.8809 eV  319.47 nm  f=0.2335  <S**2>=0.000
     264 -> 269        0.22221
     265 -> 269       -0.17624
     267 -> 270        0.20823
     267 -> 271        0.22283
     268 -> 269       -0.28728
     268 -> 270        0.33393
     268 -> 271       -0.21060
     268 -> 272        0.10309
     268 -> 273       -0.13171
 
 Excited State   6:      Singlet-A      4.0390 eV  306.97 nm  f=0.9493  <S**2>=0.000
     267 -> 272        0.32327
     267 -> 273        0.19064
     268 -> 272        0.47281
     268 -> 273        0.24367
 
 Excited State   7:      Singlet-A      4.0610 eV  305.31 nm  f=0.0145  <S**2>=0.000
     258 -> 270       -0.11404
     259 -> 270        0.11541
     264 -> 269       -0.30653
     265 -> 269        0.31734
     265 -> 270        0.20229
     266 -> 269        0.11626
     267 -> 269       -0.24053
     267 -> 270        0.24088
     268 -> 269       -0.21584
 
 Excited State   8:      Singlet-A      4.1560 eV  298.33 nm  f=0.5639  <S**2>=0.000
     267 -> 270        0.10591
     267 -> 271        0.20973
     267 -> 273        0.16885
     268 -> 270        0.12438
     268 -> 272       -0.23641
     268 -> 273        0.46848
 
 Excited State   9:      Singlet-A      4.2334 eV  292.87 nm  f=0.0744  <S**2>=0.000
     267 -> 274        0.32136
     268 -> 274        0.54396
 
 Excited State  10:      Singlet-A      4.3515 eV  284.92 nm  f=0.2501  <S**2>=0.000
     252 -> 269        0.15658
     255 -> 270       -0.16906
     258 -> 269       -0.20853
     259 -> 269        0.27244
     262 -> 269       -0.12656
     264 -> 269        0.12870
     264 -> 270       -0.22590
     265 -> 270        0.22485
     266 -> 270        0.10181
     267 -> 269        0.14117
     267 -> 270       -0.14860
     268 -> 271       -0.16929
 SavETr:  write IOETrn=   770 NScale= 10 NData=  16 NLR=1 NState=   10 LETran=     190.
 Hyperfine terms turned off by default for NAtoms > 100.

 **********************************************************************

            Population analysis using the SCF Density.

 **********************************************************************

 Orbital symmetries:
       Occupied  (A) (A) (A) (A) (A) (A) (A) (A) (A) (A) (A) (A)
                 (A) (A) (A) (A) (A) (A) (A) (A) (A) (A) (A) (A)
                 (A) (A) (A) (A) (A) (A) (A) (A) (A) (A) (A) (A)
                 (A) (A) (A) (A) (A) (A) (A) (A) (A) (A) (A) (A)
                 (A) (A) (A) (A) (A) (A) (A) (A) (A) (A) (A) (A)
                 (A) (A) (A) (A) (A) (A) (A) (A) (A) (A) (A) (A)
                 (A) (A) (A) (A) (A) (A) (A) (A) (A) (A) (A) (A)
                 (A) (A) (A) (A) (A) (A) (A) (A) (A) (A) (A) (A)
                 (A) (A) (A) (A) (A) (A) (A) (A) (A) (A) (A) (A)
                 (A) (A) (A) (A) (A) (A) (A) (A) (A) (A) (A) (A)
                 (A) (A) (A) (A) (A) (A) (A) (A) (A) (A) (A) (A)
                 (A) (A) (A) (A) (A) (A) (A) (A) (A) (A) (A) (A)
                 (A) (A) (A) (A) (A) (A) (A) (A) (A) (A) (A) (A)
                 (A) (A) (A) (A) (A) (A) (A) (A) (A) (A) (A) (A)
                 (A) (A) (A) (A) (A) (A) (A) (A) (A) (A) (A) (A)
                 (A) (A) (A) (A) (A) (A) (A) (A) (A) (A) (A) (A)
                 (A) (A) (A) (A) (A) (A) (A) (A) (A) (A) (A) (A)
                 (A) (A) (A) (A) (A) (A) (A) (A) (A) (A) (A) (A)
                 (A) (A) (A) (A) (A) (A) (A) (A) (A) (A) (A) (A)
                 (A) (A) (A) (A) (A) (A) (A) (A) (A) (A) (A) (A)
                 (A) (A) (A) (A) (A) (A) (A) (A) (A) (A) (A) (A)
                 (A) (A) (A) (A) (A) (A) (A) (A) (A) (A) (A) (A)
                 (A) (A) (A) (A)
       Virtual   (A) (A) (A) (A) (A) (A) (A) (A) (A) (A) (A) (A)
                 (A) (A) (A) (A) (A) (A) (A) (A) (A) (A) (A) (A)
                 (A) (A) (A) (A) (A) (A) (A) (A) (A) (A) (A) (A)
                 (A) (A) (A) (A) (A) (A) (A) (A) (A) (A) (A) (A)
                 (A) (A) (A) (A) (A) (A) (A) (A) (A) (A) (A) (A)
                 (A) (A) (A) (A) (A) (A) (A) (A) (A) (A) (A) (A)
                 (A) (A) (A) (A) (A) (A) (A) (A) (A) (A) (A) (A)
                 (A) (A) (A) (A) (A) (A) (A) (A) (A) (A) (A) (A)
                 (A) (A) (A) (A) (A) (A) (A) (A) (A) (A) (A) (A)
                 (A) (A) (A) (A) (A) (A) (A) (A) (A) (A) (A) (A)
                 (A) (A) (A) (A) (A) (A) (A) (A) (A) (A) (A) (A)
                 (A) (A) (A) (A) (A) (A) (A) (A) (A) (A) (A) (A)
                 (A) (A) (A) (A) (A) (A) (A) (A) (A) (A) (A) (A)
                 (A) (A) (A) (A) (A) (A) (A) (A) (A) (A) (A) (A)
                 (A) (A) (A) (A) (A) (A) (A) (A) (A) (A) (A) (A)
                 (A) (A) (A) (A) (A) (A) (A) (A) (A) (A) (A) (A)
                 (A) (A) (A) (A) (A) (A) (A) (A) (A) (A) (A) (A)
                 (A) (A) (A) (A) (A) (A) (A) (A) (A) (A) (A) (A)
                 (A) (A) (A) (A) (A) (A) (A) (A) (A) (A) (A) (A)
                 (A) (A) (A) (A) (A) (A) (A) (A) (A) (A) (A) (A)
                 (A) (A) (A) (A) (A) (A) (A) (A) (A) (A) (A) (A)
                 (A) (A) (A) (A) (A) (A) (A) (A) (A) (A) (A) (A)
                 (A) (A) (A) (A) (A) (A) (A) (A) (A) (A) (A) (A)
                 (A) (A) (A) (A) (A) (A) (A) (A) (A) (A) (A) (A)
                 (A) (A) (A) (A) (A) (A) (A) (A) (A) (A) (A) (A)
                 (A) (A) (A) (A) (A) (A) (A) (A) (A) (A) (A) (A)
                 (A) (A) (A) (A) (A) (A) (A) (A) (A) (A) (A) (A)
                 (A) (A) (A) (A) (A) (A) (A) (A) (A) (A) (A) (A)
                 (A) (A) (A) (A) (A) (A) (A) (A) (A) (A) (A) (A)
                 (A) (A) (A) (A) (A) (A) (A) (A) (A) (A) (A) (A)
                 (A) (A) (A) (A) (A) (A) (A) (A) (A) (A) (A) (A)
                 (A) (A) (A) (A) (A) (A) (A) (A) (A) (A) (A) (A)
                 (A) (A) (A) (A) (A) (A) (A) (A) (A) (A) (A) (A)
                 (A) (A) (A) (A) (A) (A) (A) (A) (A) (A) (A) (A)
                 (A) (A) (A) (A) (A) (A) (A) (A) (A) (A) (A) (A)
                 (A) (A) (A) (A) (A) (A) (A) (A) (A) (A) (A) (A)
                 (A) (A) (A) (A) (A) (A) (A) (A) (A) (A) (A) (A)
                 (A) (A) (A) (A) (A) (A) (A) (A) (A) (A) (A) (A)
                 (A) (A) (A) (A) (A) (A) (A) (A) (A) (A) (A) (A)
                 (A) (A) (A) (A) (A) (A) (A) (A) (A) (A) (A) (A)
                 (A) (A) (A) (A) (A) (A) (A) (A) (A) (A) (A) (A)
                 (A) (A) (A) (A) (A) (A) (A) (A) (A) (A) (A) (A)
                 (A) (A) (A) (A) (A) (A) (A) (A) (A) (A) (A) (A)
                 (A) (A) (A) (A) (A) (A) (A) (A) (A) (A) (A) (A)
                 (A) (A) (A) (A) (A) (A) (A) (A) (A) (A) (A) (A)
                 (A) (A) (A) (A) (A) (A) (A) (A) (A) (A) (A) (A)
                 (A) (A) (A) (A) (A) (A) (A) (A) (A) (A) (A) (A)
                 (A) (A) (A) (A) (A) (A) (A) (A) (A) (A) (A) (A)
                 (A) (A) (A) (A) (A) (A) (A) (A) (A) (A) (A) (A)
                 (A) (A) (A) (A) (A) (A) (A) (A) (A) (A) (A) (A)
                 (A) (A) (A) (A) (A) (A) (A) (A) (A) (A) (A) (A)
                 (A) (A) (A) (A) (A) (A) (A) (A) (A) (A) (A) (A)
                 (A) (A) (A) (A) (A) (A) (A) (A) (A) (A) (A) (A)
                 (A) (A) (A) (A) (A) (A) (A) (A) (A) (A) (A) (A)
                 (A) (A) (A) (A) (A) (A) (A) (A) (A) (A) (A) (A)
                 (A) (A) (A) (A) (A) (A) (A) (A) (A) (A) (A) (A)
                 (A) (A) (A) (A) (A) (A) (A) (A) (A) (A) (A) (A)
                 (A) (A) (A) (A) (A) (A) (A) (A) (A) (A) (A) (A)
                 (A) (A) (A) (A) (A) (A) (A) (A) (A) (A) (A) (A)
                 (A) (A) (A) (A) (A) (A) (A) (A) (A) (A) (A) (A)
                 (A) (A) (A) (A) (A) (A) (A) (A) (A) (A) (A) (A)
                 (A) (A) (A) (A) (A) (A) (A) (A) (A) (A) (A) (A)
                 (A) (A) (A) (A) (A) (A) (A) (A) (A) (A) (A) (A)
                 (A) (A) (A) (A) (A) (A) (A) (A) (A) (A) (A) (A)
                 (A) (A) (A) (A) (A) (A) (A) (A) (A) (A) (A) (A)
                 (A) (A) (A) (A) (A) (A) (A) (A) (A) (A) (A) (A)
                 (A) (A) (A) (A) (A) (A) (A) (A) (A) (A) (A) (A)
                 (A) (A) (A) (A) (A) (A) (A) (A) (A) (A) (A) (A)
                 (A) (A) (A) (A) (A) (A) (A) (A) (A) (A) (A) (A)
                 (A) (A) (A) (A) (A) (A) (A) (A) (A) (A) (A) (A)
                 (A) (A) (A) (A) (A) (A) (A) (A) (A) (A) (A) (A)
                 (A) (A) (A) (A) (A) (A) (A) (A) (A) (A) (A) (A)
                 (A) (A) (A) (A) (A) (A) (A) (A) (A) (A) (A) (A)
                 (A) (A) (A) (A) (A) (A) (A) (A) (A) (A) (A) (A)
                 (A) (A) (A) (A) (A) (A) (A) (A) (A) (A) (A) (A)
                 (A) (A) (A) (A) (A) (A) (A) (A) (A) (A) (A) (A)
                 (A) (A) (A) (A) (A) (A) (A) (A) (A) (A) (A) (A)
                 (A) (A) (A) (A) (A) (A) (A) (A) (A) (A) (A) (A)
                 (A) (A) (A) (A) (A) (A) (A) (A) (A) (A) (A) (A)
                 (A) (A) (A) (A) (A) (A) (A) (A) (A) (A) (A) (A)
                 (A) (A) (A) (A) (A) (A) (A) (A) (A) (A) (A) (A)
                 (A) (A) (A) (A) (A) (A) (A) (A) (A) (A) (A) (A)
                 (A) (A) (A) (A) (A) (A) (A) (A) (A) (A) (A) (A)
                 (A) (A) (A) (A) (A) (A) (A) (A) (A) (A) (A) (A)
                 (A) (A) (A) (A) (A) (A) (A) (A) (A) (A) (A) (A)
                 (A) (A) (A) (A) (A) (A) (A) (A) (A) (A) (A) (A)
                 (A) (A) (A) (A) (A) (A) (A) (A) (A) (A) (A) (A)
                 (A) (A) (A) (A) (A) (A) (A) (A) (A) (A) (A) (A)
                 (A) (A) (A) (A) (A) (A) (A) (A) (A) (A) (A) (A)
                 (A) (A) (A) (A) (A) (A) (A) (A) (A) (A) (A) (A)
                 (A) (A) (A) (A) (A) (A) (A) (A) (A) (A) (A) (A)
                 (A) (A) (A) (A) (A) (A) (A) (A) (A) (A) (A) (A)
                 (A) (A) (A) (A) (A) (A) (A) (A) (A) (A) (A) (A)
                 (A) (A) (A) (A) (A) (A) (A) (A) (A) (A) (A) (A)
                 (A) (A) (A) (A) (A) (A) (A) (A) (A) (A) (A) (A)
                 (A) (A) (A) (A) (A) (A) (A) (A) (A) (A) (A) (A)
                 (A) (A) (A) (A) (A) (A) (A) (A) (A) (A) (A) (A)
                 (A) (A) (A) (A) (A) (A) (A) (A) (A) (A) (A) (A)
                 (A) (A) (A) (A) (A) (A) (A) (A) (A) (A) (A) (A)
                 (A) (A) (A) (A) (A) (A) (A) (A) (A) (A) (A) (A)
                 (A) (A) (A) (A) (A) (A) (A) (A) (A) (A) (A) (A)
                 (A) (A) (A) (A) (A) (A) (A) (A) (A) (A) (A) (A)
                 (A) (A) (A) (A) (A) (A) (A) (A) (A) (A) (A) (A)
                 (A) (A) (A) (A) (A) (A) (A) (A) (A) (A) (A) (A)
                 (A) (A) (A) (A) (A) (A) (A) (A) (A) (A) (A) (A)
                 (A) (A) (A) (A) (A) (A) (A) (A) (A) (A) (A) (A)
                 (A) (A) (A) (A) (A) (A) (A) (A) (A) (A) (A) (A)
                 (A) (A) (A) (A) (A) (A) (A) (A) (A) (A) (A) (A)
                 (A) (A) (A) (A) (A) (A) (A) (A) (A) (A) (A) (A)
                 (A) (A) (A) (A) (A) (A) (A) (A) (A) (A) (A) (A)
                 (A) (A) (A) (A) (A) (A) (A) (A) (A) (A) (A) (A)
                 (A) (A) (A) (A) (A) (A) (A) (A) (A) (A) (A) (A)
                 (A) (A) (A) (A) (A) (A) (A) (A) (A) (A) (A) (A)
                 (A) (A) (A) (A) (A) (A) (A) (A)
 The electronic state is 1-A.
 Alpha  occ. eigenvalues --  -89.01443 -88.96186 -88.95782 -19.25076 -19.22598
 Alpha  occ. eigenvalues --  -19.22588 -19.22520 -19.20945 -19.19237 -14.42923
 Alpha  occ. eigenvalues --  -14.42884 -14.41923 -14.41057 -10.40430 -10.31886
 Alpha  occ. eigenvalues --  -10.31598 -10.31554 -10.31346 -10.31250 -10.31145
 Alpha  occ. eigenvalues --  -10.31046 -10.30853 -10.30784 -10.29852 -10.29652
 Alpha  occ. eigenvalues --  -10.29631 -10.29622 -10.29571 -10.29511 -10.29473
 Alpha  occ. eigenvalues --  -10.29415 -10.29378 -10.29230 -10.29221 -10.28922
 Alpha  occ. eigenvalues --  -10.28862 -10.28362 -10.28190 -10.28004 -10.27376
 Alpha  occ. eigenvalues --  -10.27324 -10.26883 -10.26735 -10.26730 -10.26622
 Alpha  occ. eigenvalues --  -10.26524 -10.26290 -10.26165 -10.26126 -10.25960
 Alpha  occ. eigenvalues --  -10.25946 -10.25768 -10.25765 -10.25526 -10.25490
 Alpha  occ. eigenvalues --  -10.25339 -10.25287 -10.25216 -10.25199 -10.24996
 Alpha  occ. eigenvalues --  -10.24981 -10.24963 -10.24924 -10.24888 -10.24857
 Alpha  occ. eigenvalues --  -10.24828 -10.24826 -10.24795 -10.24771 -10.24757
 Alpha  occ. eigenvalues --  -10.24526 -10.24097 -10.24092 -10.23891  -8.09953
 Alpha  occ. eigenvalues --   -8.05054  -8.04658  -6.06469  -6.05864  -6.05637
 Alpha  occ. eigenvalues --   -6.01458  -6.01070  -6.01069  -6.00699  -6.00680
 Alpha  occ. eigenvalues --   -6.00287  -1.20446  -1.15511  -1.15429  -1.15281
 Alpha  occ. eigenvalues --   -1.13770  -1.12194  -1.11665  -1.05710  -1.02077
 Alpha  occ. eigenvalues --   -1.01252  -0.98902  -0.98195  -0.97128  -0.96103
 Alpha  occ. eigenvalues --   -0.95820  -0.95434  -0.94386  -0.93889  -0.93217
 Alpha  occ. eigenvalues --   -0.92709  -0.91561  -0.88225  -0.87663  -0.87208
 Alpha  occ. eigenvalues --   -0.86195  -0.85586  -0.85478  -0.84932  -0.84251
 Alpha  occ. eigenvalues --   -0.84211  -0.83795  -0.83456  -0.83294  -0.82713
 Alpha  occ. eigenvalues --   -0.82539  -0.82060  -0.81931  -0.80309  -0.79819
 Alpha  occ. eigenvalues --   -0.78983  -0.78253  -0.77455  -0.76603  -0.76386
 Alpha  occ. eigenvalues --   -0.75418  -0.73625  -0.71838  -0.71715  -0.71540
 Alpha  occ. eigenvalues --   -0.70998  -0.70729  -0.70399  -0.69813  -0.69450
 Alpha  occ. eigenvalues --   -0.69218  -0.68418  -0.68171  -0.67792  -0.67493
 Alpha  occ. eigenvalues --   -0.67026  -0.66414  -0.66103  -0.65075  -0.64515
 Alpha  occ. eigenvalues --   -0.62761  -0.62464  -0.62168  -0.61631  -0.61449
 Alpha  occ. eigenvalues --   -0.61323  -0.60818  -0.60670  -0.59192  -0.58553
 Alpha  occ. eigenvalues --   -0.58208  -0.58124  -0.57835  -0.57042  -0.56620
 Alpha  occ. eigenvalues --   -0.56402  -0.55770  -0.55549  -0.55526  -0.54935
 Alpha  occ. eigenvalues --   -0.54822  -0.54605  -0.54536  -0.54240  -0.54089
 Alpha  occ. eigenvalues --   -0.54017  -0.53875  -0.53827  -0.53237  -0.52759
 Alpha  occ. eigenvalues --   -0.52614  -0.52381  -0.52225  -0.52191  -0.52004
 Alpha  occ. eigenvalues --   -0.51602  -0.51425  -0.51278  -0.51237  -0.50677
 Alpha  occ. eigenvalues --   -0.50541  -0.50403  -0.50078  -0.49538  -0.49470
 Alpha  occ. eigenvalues --   -0.49282  -0.49195  -0.49002  -0.48643  -0.48510
 Alpha  occ. eigenvalues --   -0.48341  -0.48061  -0.47918  -0.47663  -0.47178
 Alpha  occ. eigenvalues --   -0.47044  -0.46816  -0.46543  -0.46411  -0.46040
 Alpha  occ. eigenvalues --   -0.45927  -0.45876  -0.45600  -0.45511  -0.45338
 Alpha  occ. eigenvalues --   -0.45116  -0.44998  -0.44852  -0.44655  -0.44525
 Alpha  occ. eigenvalues --   -0.44294  -0.44149  -0.43709  -0.43317  -0.43235
 Alpha  occ. eigenvalues --   -0.42981  -0.42847  -0.42549  -0.42029  -0.41961
 Alpha  occ. eigenvalues --   -0.41809  -0.41677  -0.41329  -0.41296  -0.41059
 Alpha  occ. eigenvalues --   -0.40956  -0.40724  -0.40339  -0.40165  -0.39849
 Alpha  occ. eigenvalues --   -0.39671  -0.39629  -0.39073  -0.39036  -0.38810
 Alpha  occ. eigenvalues --   -0.37910  -0.37373  -0.36877  -0.36676  -0.35495
 Alpha  occ. eigenvalues --   -0.34566  -0.33642  -0.33442  -0.32956  -0.32681
 Alpha  occ. eigenvalues --   -0.32342  -0.32265  -0.31760  -0.31547  -0.31320
 Alpha  occ. eigenvalues --   -0.31206  -0.31003  -0.30203  -0.28943  -0.27509
 Alpha  occ. eigenvalues --   -0.26510  -0.24231  -0.22809
 Alpha virt. eigenvalues --   -0.07684  -0.06135  -0.01979   0.00297   0.00530
 Alpha virt. eigenvalues --    0.01664   0.01834   0.02240   0.03198   0.03371
 Alpha virt. eigenvalues --    0.04023   0.04145   0.04174   0.04443   0.04907
 Alpha virt. eigenvalues --    0.04999   0.05010   0.05837   0.05937   0.06406
 Alpha virt. eigenvalues --    0.07790   0.07907   0.08148   0.08174   0.08440
 Alpha virt. eigenvalues --    0.08481   0.09056   0.09139   0.09294   0.09529
 Alpha virt. eigenvalues --    0.09902   0.10199   0.10351   0.10501   0.10692
 Alpha virt. eigenvalues --    0.10873   0.11124   0.11684   0.11813   0.12048
 Alpha virt. eigenvalues --    0.12363   0.12489   0.12991   0.13028   0.13158
 Alpha virt. eigenvalues --    0.13492   0.13694   0.13736   0.14013   0.14054
 Alpha virt. eigenvalues --    0.14456   0.14608   0.14945   0.15253   0.15449
 Alpha virt. eigenvalues --    0.15571   0.15915   0.16171   0.16452   0.16650
 Alpha virt. eigenvalues --    0.16760   0.16800   0.16867   0.17387   0.17509
 Alpha virt. eigenvalues --    0.17623   0.17705   0.18027   0.18200   0.18349
 Alpha virt. eigenvalues --    0.18476   0.18659   0.18869   0.19143   0.19172
 Alpha virt. eigenvalues --    0.19505   0.19547   0.19947   0.20261   0.20317
 Alpha virt. eigenvalues --    0.20485   0.20925   0.21207   0.21310   0.21433
 Alpha virt. eigenvalues --    0.21563   0.21819   0.22440   0.22578   0.22932
 Alpha virt. eigenvalues --    0.23022   0.23192   0.23326   0.23850   0.24065
 Alpha virt. eigenvalues --    0.24354   0.24968   0.25736   0.26256   0.26349
 Alpha virt. eigenvalues --    0.26448   0.27021   0.27806   0.28302   0.28369
 Alpha virt. eigenvalues --    0.28434   0.28748   0.29028   0.29159   0.29237
 Alpha virt. eigenvalues --    0.29954   0.30167   0.30309   0.30584   0.30927
 Alpha virt. eigenvalues --    0.31222   0.31476   0.31597   0.31984   0.32086
 Alpha virt. eigenvalues --    0.32163   0.33063   0.33211   0.33355   0.33545
 Alpha virt. eigenvalues --    0.33807   0.33827   0.34043   0.34329   0.34545
 Alpha virt. eigenvalues --    0.34659   0.35193   0.35343   0.35389   0.36017
 Alpha virt. eigenvalues --    0.36173   0.36298   0.36314   0.36500   0.36585
 Alpha virt. eigenvalues --    0.36823   0.37102   0.37661   0.37806   0.37888
 Alpha virt. eigenvalues --    0.37982   0.38431   0.38636   0.38745   0.39134
 Alpha virt. eigenvalues --    0.39370   0.39476   0.39919   0.40031   0.40368
 Alpha virt. eigenvalues --    0.40643   0.41382   0.41453   0.41566   0.41685
 Alpha virt. eigenvalues --    0.41742   0.41938   0.42003   0.42107   0.42382
 Alpha virt. eigenvalues --    0.42545   0.42657   0.42808   0.42963   0.43165
 Alpha virt. eigenvalues --    0.43232   0.43473   0.43759   0.43827   0.44075
 Alpha virt. eigenvalues --    0.44202   0.44357   0.44612   0.44654   0.44727
 Alpha virt. eigenvalues --    0.44870   0.45076   0.45269   0.45365   0.45765
 Alpha virt. eigenvalues --    0.45945   0.46044   0.46067   0.46251   0.46366
 Alpha virt. eigenvalues --    0.46633   0.46830   0.46962   0.47193   0.47282
 Alpha virt. eigenvalues --    0.47475   0.47543   0.47559   0.47678   0.47898
 Alpha virt. eigenvalues --    0.48155   0.48296   0.48372   0.48433   0.48660
 Alpha virt. eigenvalues --    0.48822   0.48941   0.49086   0.49168   0.49315
 Alpha virt. eigenvalues --    0.49599   0.49682   0.49873   0.49944   0.50035
 Alpha virt. eigenvalues --    0.50171   0.50345   0.50503   0.50650   0.51014
 Alpha virt. eigenvalues --    0.51107   0.51257   0.51686   0.52173   0.52244
 Alpha virt. eigenvalues --    0.52442   0.52608   0.52631   0.52867   0.53064
 Alpha virt. eigenvalues --    0.53261   0.53441   0.53635   0.53827   0.53880
 Alpha virt. eigenvalues --    0.53978   0.54338   0.54479   0.54537   0.54718
 Alpha virt. eigenvalues --    0.55106   0.55127   0.55583   0.55921   0.56304
 Alpha virt. eigenvalues --    0.56417   0.56649   0.56805   0.57180   0.57345
 Alpha virt. eigenvalues --    0.57518   0.57645   0.58238   0.58303   0.58533
 Alpha virt. eigenvalues --    0.58842   0.58888   0.59061   0.59152   0.59428
 Alpha virt. eigenvalues --    0.59667   0.59888   0.60120   0.60294   0.60426
 Alpha virt. eigenvalues --    0.60596   0.60878   0.61053   0.61094   0.61340
 Alpha virt. eigenvalues --    0.61392   0.61600   0.61777   0.61973   0.62313
 Alpha virt. eigenvalues --    0.62455   0.62614   0.62704   0.63075   0.63158
 Alpha virt. eigenvalues --    0.63275   0.63464   0.63608   0.63740   0.63773
 Alpha virt. eigenvalues --    0.63887   0.64287   0.64413   0.64513   0.64744
 Alpha virt. eigenvalues --    0.64848   0.64967   0.65117   0.65184   0.65303
 Alpha virt. eigenvalues --    0.65375   0.65799   0.65822   0.65959   0.66169
 Alpha virt. eigenvalues --    0.66434   0.66565   0.66728   0.66843   0.67213
 Alpha virt. eigenvalues --    0.67415   0.67493   0.67602   0.67703   0.67732
 Alpha virt. eigenvalues --    0.67829   0.68209   0.68344   0.68457   0.68602
 Alpha virt. eigenvalues --    0.68676   0.68769   0.68994   0.69138   0.69347
 Alpha virt. eigenvalues --    0.69425   0.69542   0.69817   0.69968   0.70067
 Alpha virt. eigenvalues --    0.70150   0.70254   0.70534   0.70686   0.70982
 Alpha virt. eigenvalues --    0.71255   0.71451   0.71794   0.72204   0.72279
 Alpha virt. eigenvalues --    0.72376   0.72604   0.72927   0.73063   0.73591
 Alpha virt. eigenvalues --    0.74199   0.74715   0.74767   0.75260   0.75468
 Alpha virt. eigenvalues --    0.75520   0.75716   0.75848   0.76167   0.76570
 Alpha virt. eigenvalues --    0.76741   0.77029   0.77377   0.77456   0.77926
 Alpha virt. eigenvalues --    0.78224   0.78395   0.78767   0.78998   0.79456
 Alpha virt. eigenvalues --    0.79519   0.79783   0.80291   0.80458   0.80691
 Alpha virt. eigenvalues --    0.80910   0.81215   0.81429   0.81640   0.81767
 Alpha virt. eigenvalues --    0.81964   0.82295   0.82764   0.83170   0.83549
 Alpha virt. eigenvalues --    0.83563   0.83695   0.84201   0.84420   0.84719
 Alpha virt. eigenvalues --    0.84945   0.85461   0.85486   0.85711   0.85898
 Alpha virt. eigenvalues --    0.86112   0.86193   0.86489   0.86717   0.87139
 Alpha virt. eigenvalues --    0.87262   0.87285   0.87755   0.87984   0.88036
 Alpha virt. eigenvalues --    0.88067   0.88435   0.88668   0.88748   0.88917
 Alpha virt. eigenvalues --    0.89068   0.89463   0.90044   0.90161   0.90452
 Alpha virt. eigenvalues --    0.90709   0.90894   0.91017   0.91134   0.91765
 Alpha virt. eigenvalues --    0.92031   0.92282   0.92541   0.92733   0.92898
 Alpha virt. eigenvalues --    0.93035   0.93300   0.93795   0.93935   0.94155
 Alpha virt. eigenvalues --    0.94259   0.94485   0.94604   0.94679   0.95157
 Alpha virt. eigenvalues --    0.95339   0.95596   0.95936   0.96109   0.96308
 Alpha virt. eigenvalues --    0.96520   0.96849   0.97066   0.97397   0.97696
 Alpha virt. eigenvalues --    0.98185   0.98425   0.98796   0.98896   0.99199
 Alpha virt. eigenvalues --    0.99731   0.99939   0.99985   1.00188   1.00870
 Alpha virt. eigenvalues --    1.01489   1.01714   1.02003   1.02261   1.02474
 Alpha virt. eigenvalues --    1.02563   1.02740   1.03067   1.03213   1.03440
 Alpha virt. eigenvalues --    1.03954   1.04267   1.04617   1.05021   1.05160
 Alpha virt. eigenvalues --    1.05305   1.05713   1.05964   1.06180   1.06449
 Alpha virt. eigenvalues --    1.06832   1.07057   1.07287   1.07478   1.07799
 Alpha virt. eigenvalues --    1.07893   1.08416   1.08630   1.08825   1.08984
 Alpha virt. eigenvalues --    1.09337   1.09421   1.09717   1.10074   1.10146
 Alpha virt. eigenvalues --    1.10473   1.10688   1.11032   1.11154   1.11560
 Alpha virt. eigenvalues --    1.11791   1.12351   1.12622   1.13294   1.13338
 Alpha virt. eigenvalues --    1.13406   1.13978   1.14155   1.14504   1.14888
 Alpha virt. eigenvalues --    1.15271   1.15444   1.16335   1.16423   1.16593
 Alpha virt. eigenvalues --    1.16698   1.16788   1.17088   1.17812   1.18010
 Alpha virt. eigenvalues --    1.18349   1.18533   1.18717   1.19095   1.19625
 Alpha virt. eigenvalues --    1.19799   1.19901   1.20362   1.20468   1.20790
 Alpha virt. eigenvalues --    1.21091   1.21203   1.21699   1.22129   1.22253
 Alpha virt. eigenvalues --    1.22726   1.23276   1.23449   1.23978   1.24168
 Alpha virt. eigenvalues --    1.24633   1.24887   1.25306   1.25848   1.26291
 Alpha virt. eigenvalues --    1.26449   1.27519   1.27769   1.28366   1.28842
 Alpha virt. eigenvalues --    1.29483   1.29918   1.30220   1.30377   1.30920
 Alpha virt. eigenvalues --    1.31859   1.31979   1.32309   1.33058   1.33596
 Alpha virt. eigenvalues --    1.33689   1.34386   1.34838   1.35419   1.35873
 Alpha virt. eigenvalues --    1.35893   1.36272   1.36582   1.36775   1.38080
 Alpha virt. eigenvalues --    1.38163   1.38591   1.39237   1.40102   1.41315
 Alpha virt. eigenvalues --    1.42298   1.42366   1.43121   1.43347   1.43484
 Alpha virt. eigenvalues --    1.43630   1.44021   1.44515   1.45406   1.45540
 Alpha virt. eigenvalues --    1.45565   1.45760   1.45874   1.46568   1.47045
 Alpha virt. eigenvalues --    1.47133   1.47596   1.47852   1.48175   1.48738
 Alpha virt. eigenvalues --    1.48844   1.48978   1.49368   1.49877   1.50438
 Alpha virt. eigenvalues --    1.50624   1.50633   1.50791   1.51057   1.51251
 Alpha virt. eigenvalues --    1.51356   1.51498   1.51815   1.51913   1.52538
 Alpha virt. eigenvalues --    1.52685   1.52927   1.53138   1.53167   1.53264
 Alpha virt. eigenvalues --    1.53326   1.53510   1.53683   1.53800   1.53942
 Alpha virt. eigenvalues --    1.54021   1.54347   1.54545   1.54914   1.55073
 Alpha virt. eigenvalues --    1.55204   1.55472   1.55609   1.55831   1.55894
 Alpha virt. eigenvalues --    1.56185   1.56554   1.56750   1.57280   1.57340
 Alpha virt. eigenvalues --    1.57588   1.58095   1.58619   1.58672   1.58991
 Alpha virt. eigenvalues --    1.59096   1.59549   1.59802   1.59998   1.60225
 Alpha virt. eigenvalues --    1.60673   1.60788   1.60943   1.61325   1.61355
 Alpha virt. eigenvalues --    1.61503   1.61748   1.61931   1.62219   1.62705
 Alpha virt. eigenvalues --    1.62959   1.63079   1.63596   1.64437   1.64477
 Alpha virt. eigenvalues --    1.64567   1.64775   1.64846   1.65187   1.65351
 Alpha virt. eigenvalues --    1.65378   1.65514   1.66030   1.66125   1.66302
 Alpha virt. eigenvalues --    1.66446   1.66552   1.66867   1.67031   1.67241
 Alpha virt. eigenvalues --    1.67441   1.67848   1.68234   1.68419   1.68877
 Alpha virt. eigenvalues --    1.69040   1.70007   1.70046   1.70637   1.70791
 Alpha virt. eigenvalues --    1.71083   1.71485   1.71694   1.72076   1.72150
 Alpha virt. eigenvalues --    1.72394   1.72712   1.72872   1.73068   1.73214
 Alpha virt. eigenvalues --    1.73284   1.73492   1.73751   1.73982   1.74101
 Alpha virt. eigenvalues --    1.74149   1.74197   1.74479   1.74657   1.74827
 Alpha virt. eigenvalues --    1.75488   1.75849   1.76349   1.76514   1.76656
 Alpha virt. eigenvalues --    1.77004   1.77342   1.77624   1.78290   1.78366
 Alpha virt. eigenvalues --    1.78987   1.79101   1.79344   1.79772   1.80150
 Alpha virt. eigenvalues --    1.80402   1.80795   1.80872   1.81142   1.81409
 Alpha virt. eigenvalues --    1.81668   1.81820   1.81899   1.82108   1.82291
 Alpha virt. eigenvalues --    1.82471   1.82687   1.82864   1.83004   1.83137
 Alpha virt. eigenvalues --    1.83349   1.83660   1.83786   1.84314   1.84789
 Alpha virt. eigenvalues --    1.85113   1.85356   1.85677   1.85745   1.85889
 Alpha virt. eigenvalues --    1.86130   1.86404   1.86749   1.86810   1.87144
 Alpha virt. eigenvalues --    1.87439   1.87951   1.88264   1.88708   1.89036
 Alpha virt. eigenvalues --    1.89588   1.90795   1.91985   1.92337   1.92701
 Alpha virt. eigenvalues --    1.92861   1.93591   1.93674   1.93956   1.94552
 Alpha virt. eigenvalues --    1.94829   1.94850   1.95452   1.95750   1.95799
 Alpha virt. eigenvalues --    1.96207   1.96631   1.96910   1.97226   1.97351
 Alpha virt. eigenvalues --    1.97483   1.97678   1.97873   1.98200   1.98296
 Alpha virt. eigenvalues --    1.98379   1.98510   1.98747   1.99121   1.99183
 Alpha virt. eigenvalues --    1.99207   1.99466   1.99773   1.99969   2.00428
 Alpha virt. eigenvalues --    2.00801   2.01154   2.01444   2.01552   2.01760
 Alpha virt. eigenvalues --    2.01919   2.02422   2.02891   2.03321   2.03757
 Alpha virt. eigenvalues --    2.03860   2.04073   2.04148   2.04563   2.04787
 Alpha virt. eigenvalues --    2.05004   2.05020   2.05456   2.05741   2.05910
 Alpha virt. eigenvalues --    2.06228   2.06599   2.06666   2.06911   2.07027
 Alpha virt. eigenvalues --    2.07297   2.07469   2.08370   2.08747   2.09054
 Alpha virt. eigenvalues --    2.09335   2.09742   2.10149   2.10518   2.10680
 Alpha virt. eigenvalues --    2.11050   2.11261   2.11497   2.11788   2.11944
 Alpha virt. eigenvalues --    2.12276   2.12773   2.13403   2.13610   2.13855
 Alpha virt. eigenvalues --    2.14017   2.14547   2.14876   2.14982   2.15193
 Alpha virt. eigenvalues --    2.15610   2.15788   2.16129   2.16153   2.16476
 Alpha virt. eigenvalues --    2.16587   2.16719   2.17690   2.17888   2.18018
 Alpha virt. eigenvalues --    2.18321   2.18479   2.18563   2.18951   2.19671
 Alpha virt. eigenvalues --    2.19972   2.20213   2.20579   2.20600   2.21371
 Alpha virt. eigenvalues --    2.21643   2.21912   2.22143   2.23194   2.23699
 Alpha virt. eigenvalues --    2.24057   2.24879   2.25762   2.26023   2.26342
 Alpha virt. eigenvalues --    2.26581   2.28326   2.28712   2.28838   2.29667
 Alpha virt. eigenvalues --    2.30380   2.30526   2.31354   2.31484   2.32973
 Alpha virt. eigenvalues --    2.33492   2.35129   2.35757   2.35922   2.36145
 Alpha virt. eigenvalues --    2.36543   2.37523   2.38104   2.38194   2.38298
 Alpha virt. eigenvalues --    2.38413   2.38758   2.38867   2.39316   2.39404
 Alpha virt. eigenvalues --    2.39796   2.40298   2.40339   2.40760   2.41186
 Alpha virt. eigenvalues --    2.41620   2.42183   2.42334   2.42410   2.42929
 Alpha virt. eigenvalues --    2.43136   2.43299   2.44179   2.44855   2.45192
 Alpha virt. eigenvalues --    2.45456   2.45988   2.46344   2.46512   2.46930
 Alpha virt. eigenvalues --    2.47148   2.47512   2.47751   2.47911   2.48079
 Alpha virt. eigenvalues --    2.48297   2.48764   2.49198   2.49469   2.49624
 Alpha virt. eigenvalues --    2.50047   2.50384   2.51318   2.51569   2.52008
 Alpha virt. eigenvalues --    2.52115   2.52286   2.52891   2.53041   2.54034
 Alpha virt. eigenvalues --    2.54143   2.54334   2.55442   2.55865   2.56362
 Alpha virt. eigenvalues --    2.56618   2.56909   2.57273   2.57621   2.57927
 Alpha virt. eigenvalues --    2.58052   2.58264   2.58492   2.58644   2.58906
 Alpha virt. eigenvalues --    2.59368   2.59730   2.60260   2.60764   2.61017
 Alpha virt. eigenvalues --    2.61261   2.62055   2.62270   2.62672   2.63232
 Alpha virt. eigenvalues --    2.63406   2.63919   2.63987   2.64618   2.65200
 Alpha virt. eigenvalues --    2.65260   2.65561   2.65886   2.66060   2.66345
 Alpha virt. eigenvalues --    2.66965   2.67518   2.67636   2.68017   2.68181
 Alpha virt. eigenvalues --    2.68345   2.68517   2.68571   2.68931   2.69207
 Alpha virt. eigenvalues --    2.69462   2.69859   2.70237   2.70414   2.70486
 Alpha virt. eigenvalues --    2.70801   2.71078   2.71595   2.71830   2.71951
 Alpha virt. eigenvalues --    2.72102   2.72211   2.72830   2.73400   2.73573
 Alpha virt. eigenvalues --    2.73690   2.73780   2.74032   2.74340   2.74471
 Alpha virt. eigenvalues --    2.74634   2.74807   2.75028   2.75214   2.75747
 Alpha virt. eigenvalues --    2.75787   2.76213   2.76281   2.76409   2.76730
 Alpha virt. eigenvalues --    2.77192   2.77736   2.77796   2.78024   2.78483
 Alpha virt. eigenvalues --    2.78783   2.78849   2.79251   2.79597   2.80131
 Alpha virt. eigenvalues --    2.80442   2.80499   2.80925   2.81319   2.81570
 Alpha virt. eigenvalues --    2.81894   2.82271   2.82709   2.82898   2.83230
 Alpha virt. eigenvalues --    2.83665   2.84003   2.84167   2.84680   2.85277
 Alpha virt. eigenvalues --    2.85842   2.86267   2.86878   2.87168   2.87556
 Alpha virt. eigenvalues --    2.88239   2.88743   2.88818   2.89162   2.89340
 Alpha virt. eigenvalues --    2.89860   2.90269   2.90826   2.91169   2.91594
 Alpha virt. eigenvalues --    2.91897   2.92098   2.92166   2.92903   2.93297
 Alpha virt. eigenvalues --    2.93657   2.94122   2.94311   2.94585   2.94735
 Alpha virt. eigenvalues --    2.95101   2.95411   2.95905   2.96804   2.96997
 Alpha virt. eigenvalues --    2.97183   2.97485   2.98285   2.98466   2.98848
 Alpha virt. eigenvalues --    2.99440   2.99511   2.99694   2.99944   3.00624
 Alpha virt. eigenvalues --    3.00971   3.01129   3.01343   3.01652   3.01946
 Alpha virt. eigenvalues --    3.02989   3.03627   3.03927   3.04328   3.04586
 Alpha virt. eigenvalues --    3.05124   3.05431   3.05698   3.06138   3.06704
 Alpha virt. eigenvalues --    3.09187   3.09337   3.09724   3.10261   3.10588
 Alpha virt. eigenvalues --    3.11171   3.11346   3.11465   3.11549   3.12042
 Alpha virt. eigenvalues --    3.12268   3.12448   3.13139   3.13567   3.13849
 Alpha virt. eigenvalues --    3.14698   3.14771   3.16359   3.16503   3.17277
 Alpha virt. eigenvalues --    3.17741   3.18087   3.18761   3.19635   3.19864
 Alpha virt. eigenvalues --    3.20884   3.21055   3.22700   3.23918   3.24185
 Alpha virt. eigenvalues --    3.24201   3.24858   3.25058   3.26032   3.26151
 Alpha virt. eigenvalues --    3.26684   3.27085   3.27173   3.27760   3.27916
 Alpha virt. eigenvalues --    3.28827   3.29304   3.29777   3.31408   3.31487
 Alpha virt. eigenvalues --    3.31956   3.32158   3.32854   3.33119   3.34754
 Alpha virt. eigenvalues --    3.36071   3.37113   3.38329   3.38390   3.38548
 Alpha virt. eigenvalues --    3.40276   3.40388   3.41018   3.41247   3.41663
 Alpha virt. eigenvalues --    3.42842   3.43185   3.43531   3.43834   3.44120
 Alpha virt. eigenvalues --    3.45008   3.45344   3.45907   3.46394   3.47967
 Alpha virt. eigenvalues --    3.48137   3.48619   3.49745   3.50951   3.51777
 Alpha virt. eigenvalues --    3.51961   3.54244   3.54788   3.55417   3.56277
 Alpha virt. eigenvalues --    3.56648   3.57754   3.58060   3.59468   3.59880
 Alpha virt. eigenvalues --    3.60229   3.60363   3.61614   3.61791   3.62505
 Alpha virt. eigenvalues --    3.62665   3.63278   3.63837   3.64205   3.65776
 Alpha virt. eigenvalues --    3.65921   3.66678   3.67202   3.68491   3.68677
 Alpha virt. eigenvalues --    3.70348   3.70958   3.73143   3.74305   3.78830
 Alpha virt. eigenvalues --    3.80473   3.81937   3.82515   3.82845   3.82872
 Alpha virt. eigenvalues --    3.83140   3.83380   3.84160   3.84287   3.85629
 Alpha virt. eigenvalues --    3.86284   3.86334   3.86802   3.87081   3.88086
 Alpha virt. eigenvalues --    3.88756   3.88818   3.88950   3.90130   3.91296
 Alpha virt. eigenvalues --    3.92474   3.92955   3.93717   3.94145   3.98684
 Alpha virt. eigenvalues --    4.00162   4.04289   4.04947   4.05501   4.06042
 Alpha virt. eigenvalues --    4.06414   4.06776   4.09503   4.09912   4.10799
 Alpha virt. eigenvalues --    4.11589   4.13172   4.14010   4.15290   4.16633
 Alpha virt. eigenvalues --    4.17273   4.17926   4.18772   4.18913   4.19330
 Alpha virt. eigenvalues --    4.19650   4.20024   4.20843   4.21387   4.22126
 Alpha virt. eigenvalues --    4.23220   4.24264   4.24823   4.25047   4.25514
 Alpha virt. eigenvalues --    4.26330   4.26823   4.27532   4.32111   4.35727
 Alpha virt. eigenvalues --    4.38169   4.47170   4.49432   4.54142   4.54313
 Alpha virt. eigenvalues --    4.59695   4.63141   4.67727   4.71410   4.78888
 Alpha virt. eigenvalues --    4.81444   4.84525   4.87845   4.89681   4.89777
 Alpha virt. eigenvalues --    4.90187   4.91730   4.93073   4.93310   4.96213
 Alpha virt. eigenvalues --    4.96587   4.96718   5.00632   5.09036   5.11969
 Alpha virt. eigenvalues --    5.17015   5.20824   5.33293   5.34463   5.35135
 Alpha virt. eigenvalues --    5.35414   5.39549   5.61960   5.79015   5.83911
 Alpha virt. eigenvalues --    5.84503   5.85770   5.87028   7.86423   7.87521
 Alpha virt. eigenvalues --    7.91022  17.20184  17.25345  17.28053  17.36787
 Alpha virt. eigenvalues --   17.39238  17.50382  17.57829  17.59482  17.63190
 Alpha virt. eigenvalues --   23.45078  23.50148  23.52771  23.54087  23.58942
 Alpha virt. eigenvalues --   23.66394  23.67992  23.68674  23.71666  23.77199
 Alpha virt. eigenvalues --   23.81557  23.83241  23.88073  23.90813  23.91965
 Alpha virt. eigenvalues --   23.92307  23.92646  23.92707  23.93330  23.93599
 Alpha virt. eigenvalues --   23.93939  23.94075  23.94548  23.96625  23.96937
 Alpha virt. eigenvalues --   23.97251  23.97792  23.98322  23.98612  23.98924
 Alpha virt. eigenvalues --   23.99020  23.99295  23.99470  24.00072  24.04769
 Alpha virt. eigenvalues --   24.07269  24.07346  24.07788  24.08217  24.09545
 Alpha virt. eigenvalues --   24.11143  24.11391  24.11722  24.12292  24.14743
 Alpha virt. eigenvalues --   24.15522  24.16801  24.17376  24.17940  24.18202
 Alpha virt. eigenvalues --   24.18522  24.18724  24.19374  24.19875  24.22797
 Alpha virt. eigenvalues --   24.22863  24.23134  24.24416  24.24759  24.25130
 Alpha virt. eigenvalues --   24.47348  35.53061  35.66030  35.70909  35.86038
 Alpha virt. eigenvalues --   49.88828  49.96272  49.96491  49.97927  49.98654
 Alpha virt. eigenvalues --   50.05242 188.90472 188.91507 188.95194
          Condensed to atoms (all electrons):
 Mulliken charges:
               1
     1  C   -0.254368
     2  C   -0.008727
     3  C   -0.185974
     4  C   -0.180060
     5  S    0.304658
     6  C   -0.298496
     7  C    0.032637
     8  C   -0.007250
     9  H    0.134600
    10  C    0.070834
    11  C   -0.109106
    12  C   -0.084707
    13  C   -0.005750
    14  C    0.097179
    15  N   -0.477623
    16  S    0.582288
    17  N   -0.502263
    18  C    0.126981
    19  C   -0.057554
    20  C   -0.052225
    21  C   -0.120044
    22  C    0.150083
    23  C   -0.118928
    24  C   -0.081937
    25  H    0.120663
    26  H    0.132339
    27  N   -0.494672
    28  C    0.087905
    29  C   -0.094713
    30  C   -0.059099
    31  C   -0.113039
    32  C   -0.084136
    33  C   -0.087419
    34  H    0.127025
    35  H    0.118828
    36  C   -0.043603
    37  C   -0.073083
    38  C   -0.113567
    39  C    0.168205
    40  C   -0.106432
    41  C    0.098743
    42  O   -0.389135
    43  C   -0.125663
    44  H    0.111714
    45  H    0.128929
    46  H    0.121282
    47  H    0.127618
    48  O   -0.354457
    49  C   -0.156574
    50  H    0.142344
    51  H    0.127559
    52  H    0.126085
    53  H    0.119291
    54  H    0.121480
    55  H    0.119343
    56  H    0.125474
    57  C    0.082233
    58  C   -0.096637
    59  C   -0.051293
    60  C   -0.049176
    61  C   -0.084841
    62  C   -0.088993
    63  H    0.125150
    64  H    0.118681
    65  C   -0.114878
    66  C    0.189729
    67  C   -0.193601
    68  C    0.162968
    69  C   -0.121908
    70  C   -0.076688
    71  H    0.116959
    72  H    0.114976
    73  O   -0.355867
    74  C   -0.158132
    75  H    0.125494
    76  H    0.142652
    77  H    0.125546
    78  H    0.151588
    79  O   -0.361543
    80  C   -0.156548
    81  H    0.125433
    82  H    0.126246
    83  H    0.143159
    84  H    0.113414
    85  H    0.123277
    86  H    0.131943
    87  H    0.121997
    88  H    0.125510
    89  H    0.129013
    90  S    0.319890
    91  C   -0.314762
    92  C    0.029524
    93  H    0.127935
    94  C    0.015477
    95  C   -0.052684
    96  C   -0.061780
    97  C   -0.125962
    98  C   -0.050118
    99  C   -0.105833
   100  H    0.132107
   101  H    0.136380
   102  C    0.078983
   103  C   -0.229086
   104  C    0.001996
   105  N   -0.233265
   106  C    0.458651
   107  O   -0.339467
   108  O   -0.312259
   109  H    0.277485
   110  H    0.146274
   111  H    0.129093
   112  H    0.126385
   113  C   -0.231359
   114  H    0.123346
   115  H    0.122034
   116  H    0.123931
   117  C   -0.231094
   118  H    0.123221
   119  H    0.123905
   120  H    0.121704
 Sum of Mulliken charges =  -0.00000
 Mulliken charges with hydrogens summed into heavy atoms:
               1
     1  C   -0.254368
     2  C   -0.008727
     3  C   -0.185974
     4  C   -0.180060
     5  S    0.304658
     6  C   -0.298496
     7  C    0.167237
     8  C   -0.007250
    10  C    0.070834
    11  C    0.019907
    12  C    0.040803
    13  C   -0.005750
    14  C    0.097179
    15  N   -0.477623
    16  S    0.582288
    17  N   -0.502263
    18  C    0.126981
    19  C   -0.057554
    20  C    0.069772
    21  C    0.011899
    22  C    0.150083
    23  C    0.013411
    24  C    0.038726
    27  N   -0.494672
    28  C    0.087905
    29  C    0.030760
    30  C    0.060243
    31  C   -0.113039
    32  C    0.034692
    33  C    0.039606
    36  C   -0.043603
    37  C    0.048397
    38  C    0.005724
    39  C    0.168205
    40  C    0.021186
    41  C    0.098743
    42  O   -0.389135
    43  C    0.236262
    48  O   -0.354457
    49  C    0.239415
    57  C    0.082233
    58  C    0.026641
    59  C    0.062121
    60  C   -0.049176
    61  C    0.033840
    62  C    0.036157
    65  C   -0.114878
    66  C    0.189729
    67  C   -0.042013
    68  C    0.162968
    69  C   -0.006933
    70  C    0.040271
    73  O   -0.355867
    74  C    0.235560
    79  O   -0.361543
    80  C    0.238291
    90  S    0.319890
    91  C   -0.314762
    92  C    0.157459
    94  C    0.015477
    95  C    0.073702
    96  C    0.067312
    97  C   -0.125962
    98  C    0.086263
    99  C    0.026274
   102  C    0.225258
   103  C   -0.229086
   104  C    0.001996
   105  N   -0.233265
   106  C    0.458651
   107  O   -0.339467
   108  O   -0.034774
   113  C    0.137952
   117  C    0.137736
 Electronic spatial extent (au):  <R**2>=         204315.7603
 Charge=             -0.0000 electrons
 Dipole moment (field-independent basis, Debye):
    X=            -11.9632    Y=             -3.8056    Z=              7.2884  Tot=             14.5162
 Quadrupole moment (field-independent basis, Debye-Ang):
   XX=           -539.9504   YY=           -403.6763   ZZ=           -445.3512
   XY=             -3.1389   XZ=             29.4675   YZ=            -18.2613
 Traceless Quadrupole moment (field-independent basis, Debye-Ang):
   XX=            -76.9578   YY=             59.3163   ZZ=             17.6415
   XY=             -3.1389   XZ=             29.4675   YZ=            -18.2613
 Octapole moment (field-independent basis, Debye-Ang**2):
  XXX=          -6213.2181  YYY=           -188.7847  ZZZ=            121.3833  XYY=           -785.9932
  XXY=           -565.8622  XXZ=           1250.0833  XZZ=            -61.7655  YZZ=            -56.5745
  YYZ=            100.4271  XYZ=            127.7577
 Hexadecapole moment (field-independent basis, Debye-Ang**3):
 XXXX=        -314701.9307 YYYY=         -31203.1007 ZZZZ=          -8994.6206 XXXY=          -4796.4236
 XXXZ=           9767.2736 YYYX=           1666.4390 YYYZ=           -805.6972 ZZZX=            957.9857
 ZZZY=           -140.8400 XXYY=         -35374.1702 XXZZ=         -42199.1370 YYZZ=          -7605.0045
 XXYZ=          -1495.5622 YYXZ=           -625.8544 ZZXY=           -339.6908
 N-N= 1.002970077633D+04 E-N=-2.993653927886D+04  KE= 4.204223906470D+03
 1\1\GINC-CN113\SP\RCAM-B3LYP TD-FC\6-311G(d,p)\C61H46N4O6S3\R2532\04-J
 un-2021\0\\#N TD(NStates=10)CAM-B3lYP/6-311G(d,p) SCRF=(Solvent=Dichlo
 romethane)\\Name\\0,1\C,0,-7.546561,1.28031,2.683097\C,0,-8.592842,0.8
 00254,1.678459\C,0,-7.982348,0.250768,0.559527\C,0,-6.560027,0.312166,
 0.721275\S,0,-5.139569,-0.12657,-0.154442\C,0,-4.110677,0.497597,1.154
 165\C,0,-4.886064,1.009111,2.184047\C,0,-6.267212,0.903068,1.938473\H,
 0,-4.434723,1.436566,3.066072\C,0,-2.66474,0.421969,1.036834\C,0,-2.03
 3004,-0.180668,-0.038723\C,0,-0.630861,-0.259925,-0.188264\C,0,0.27147
 6,0.24855,0.727084\C,0,-0.325305,0.886039,1.870252\N,0,0.341718,1.4322
 83,2.889414\S,0,-0.764611,2.009353,3.945696\N,0,-2.137532,1.584801,3.1
 56203\C,0,-1.773595,0.971653,2.029089\C,0,1.727905,0.129793,0.534743\C
 ,0,2.6277,1.12709,0.949407\C,0,3.989468,1.01524,0.716343\C,0,4.520458,
 -0.105162,0.056672\C,0,3.630876,-1.111584,-0.353867\C,0,2.271351,-0.99
 2571,-0.11446\H,0,1.61859,-1.799849,-0.426\H,0,4.012512,-1.990779,-0.8
 57038\N,0,5.905965,-0.218076,-0.183178\C,0,6.541714,-1.490986,-0.16259
 5\C,0,7.452277,-1.849593,-1.164607\C,0,8.080003,-3.08788,-1.142777\C,0
 ,7.814461,-4.022365,-0.129081\C,0,6.902809,-3.649608,0.871239\C,0,6.28
 1857,-2.406948,0.86377\H,0,5.59547,-2.138317,1.657746\H,0,6.698462,-4.
 333679,1.687379\C,0,8.431479,-5.372355,-0.123591\C,0,7.65544,-6.504999
 ,0.184186\C,0,8.175336,-7.787662,0.179345\C,0,9.520917,-7.991698,-0.14
 6516\C,0,10.322163,-6.890794,-0.449187\C,0,9.78101,-5.603663,-0.436548
 \O,0,10.63086,-4.567494,-0.772508\C,0,11.174607,-3.854858,0.341958\H,0
 ,11.768846,-4.521873,0.977035\H,0,11.818644,-3.079567,-0.07252\H,0,10.
 385781,-3.390238,0.941552\H,0,11.366991,-6.989955,-0.708897\O,0,9.9507
 27,-9.284025,-0.144623\C,0,11.303899,-9.547345,-0.489284\H,0,11.419341
 ,-10.628514,-0.434744\H,0,11.531966,-9.209206,-1.506079\H,0,11.997205,
 -9.07373,0.214791\H,0,7.557214,-8.648199,0.402949\H,0,6.602998,-6.3683
 78,0.405019\H,0,8.776499,-3.344012,-1.929784\H,0,7.660802,-1.152742,-1
 .967442\C,0,6.68419,0.938764,-0.477466\C,0,7.924033,1.137885,0.141914\
 C,0,8.692136,2.255911,-0.153082\C,0,8.25176,3.224345,-1.068286\C,0,7.0
 02848,3.017724,-1.673254\C,0,6.234035,1.894297,-1.394612\H,0,5.276141,
 1.759105,-1.882366\H,0,6.622935,3.753594,-2.37299\C,0,9.074355,4.40406
 6,-1.438322\C,0,9.741533,5.204812,-0.488005\C,0,10.490422,6.32069,-0.8
 79745\C,0,10.589114,6.656541,-2.233187\C,0,9.938791,5.878317,-3.191525
 \C,0,9.200749,4.778553,-2.783035\H,0,8.714408,4.166883,-3.534234\H,0,1
 0.032331,6.144342,-4.236502\O,0,11.299441,7.720324,-2.704903\C,0,11.98
 5477,8.550716,-1.780708\H,0,12.745332,7.991399,-1.222891\H,0,12.473802
 ,9.31926,-2.377619\H,0,11.294191,9.027627,-1.076442\H,0,10.986088,6.92
 2385,-0.134488\O,0,9.602716,4.840751,0.820595\C,0,10.183472,5.647349,1
 .833286\H,0,11.275635,5.680701,1.748293\H,0,9.784755,6.667732,1.813423
 \H,0,9.912805,5.176009,2.776807\H,0,9.646101,2.386068,0.339831\H,0,8.2
 85881,0.405206,0.853395\H,0,4.654626,1.802552,1.047713\H,0,2.255914,1.
 998856,1.468874\H,0,-0.2525,-0.727024,-1.089395\H,0,-2.635999,-0.61437
 7,-0.82843\S,0,-9.123789,-0.305543,-0.605419\C,0,-10.469575,0.212829,0
 .424075\C,0,-9.994005,0.777274,1.599899\H,0,-10.653402,1.174492,2.3599
 53\C,0,-11.846087,0.026495,0.002967\C,0,-12.911052,0.188287,0.91453\C,
 0,-14.2207,0.019765,0.513571\C,0,-14.553611,-0.327482,-0.814183\C,0,-1
 3.488229,-0.495374,-1.72485\C,0,-12.178791,-0.320031,-1.325168\H,0,-11
 .391855,-0.44104,-2.060468\H,0,-13.683793,-0.758683,-2.755101\C,0,-15.
 951965,-0.484358,-1.128773\C,0,-16.598111,-0.801101,-2.284978\C,0,-15.
 969472,-1.065192,-3.530449\N,0,-15.544201,-1.294906,-4.583914\C,0,-18.
 103574,-0.878389,-2.242749\O,0,-18.738018,-0.672509,-1.243038\O,0,-18.
 723307,-1.195286,-3.399137\H,0,-18.087752,-1.332222,-4.115879\H,0,-16.
 637229,-0.323158,-0.300363\H,0,-15.018492,0.148074,1.237166\H,0,-12.70
 4703,0.430789,1.949174\C,0,-7.637268,2.804247,2.911604\H,0,-7.558605,3
 .347206,1.967676\H,0,-8.589316,3.066421,3.381452\H,0,-6.831512,3.14023
 3,3.569513\C,0,-7.660911,0.524229,4.024198\H,0,-7.602613,-0.555306,3.8
 71714\H,0,-6.853024,0.819794,4.698782\H,0,-8.611489,0.752222,4.514437\
 \Version=ES64L-G16RevB.01\State=1-A\HF=-4216.2679153\RMSD=4.758e-09\PG
 =C01 [X(C61H46N4O6S3)]\\@


 ... IT CAN BE VERY DIFFICULT, IN THESE COMPLEX TIMES,
 TO UNDERSTAND JUST HOW SCIENTISTS DO WHAT THEY DO.

                     DON MOSER IN THE FEBRUARY 1979 SMITHSONIAN
 Job cpu time:       0 days 12 hours  8 minutes 34.8 seconds.
 Elapsed time:       0 days 12 hours  8 minutes 58.9 seconds.
 File lengths (MBytes):  RWF=  19345 Int=      0 D2E=      0 Chk=    998 Scr=      1
 Normal termination of Gaussian 16 at Fri Jun  4 21:01:20 2021.
