 Entering Gaussian System, Link 0=g16
 Input=ES.com
 Output=ES.out
 Initial command:
 /usr/local/apps/gaussian/g16-b01-avx2//g16/l1.exe "/tmp/r2532.851522.maple/Gau-3707.inp" -scrdir="/tmp/r2532.851522.maple/"
 Entering Link 1 = /usr/local/apps/gaussian/g16-b01-avx2//g16/l1.exe PID=      3710.
  
 Copyright (c) 1988-2017, Gaussian, Inc.  All Rights Reserved.
  
 This is part of the Gaussian(R) 16 program.  It is based on
 the Gaussian(R) 09 system (copyright 2009, Gaussian, Inc.),
 the Gaussian(R) 03 system (copyright 2003, Gaussian, Inc.),
 the Gaussian(R) 98 system (copyright 1998, Gaussian, Inc.),
 the Gaussian(R) 94 system (copyright 1995, Gaussian, Inc.),
 the Gaussian 92(TM) system (copyright 1992, Gaussian, Inc.),
 the Gaussian 90(TM) system (copyright 1990, Gaussian, Inc.),
 the Gaussian 88(TM) system (copyright 1988, Gaussian, Inc.),
 the Gaussian 86(TM) system (copyright 1986, Carnegie Mellon
 University), and the Gaussian 82(TM) system (copyright 1983,
 Carnegie Mellon University). Gaussian is a federally registered
 trademark of Gaussian, Inc.
  
 This software contains proprietary and confidential information,
 including trade secrets, belonging to Gaussian, Inc.
  
 This software is provided under written license and may be
 used, copied, transmitted, or stored only in accord with that
 written license.
  
 The following legend is applicable only to US Government
 contracts under FAR:
  
                    RESTRICTED RIGHTS LEGEND
  
 Use, reproduction and disclosure by the US Government is
 subject to restrictions as set forth in subparagraphs (a)
 and (c) of the Commercial Computer Software - Restricted
 Rights clause in FAR 52.227-19.
  
 Gaussian, Inc.
 340 Quinnipiac St., Bldg. 40, Wallingford CT 06492
  
  
 ---------------------------------------------------------------
 Warning -- This program may not be used in any manner that
 competes with the business of Gaussian, Inc. or will provide
 assistance to any competitor of Gaussian, Inc.  The licensee
 of this program is prohibited from giving any competitor of
 Gaussian, Inc. access to this program.  By using this program,
 the user acknowledges that Gaussian, Inc. is engaged in the
 business of creating and licensing software in the field of
 computational chemistry and represents and warrants to the
 licensee that it is not a competitor of Gaussian, Inc. and that
 it will not use this program in any manner prohibited above.
 ---------------------------------------------------------------
  

 Cite this work as:
 Gaussian 16, Revision B.01,
 M. J. Frisch, G. W. Trucks, H. B. Schlegel, G. E. Scuseria, 
 M. A. Robb, J. R. Cheeseman, G. Scalmani, V. Barone, 
 G. A. Petersson, H. Nakatsuji, X. Li, M. Caricato, A. V. Marenich, 
 J. Bloino, B. G. Janesko, R. Gomperts, B. Mennucci, H. P. Hratchian, 
 J. V. Ortiz, A. F. Izmaylov, J. L. Sonnenberg, D. Williams-Young, 
 F. Ding, F. Lipparini, F. Egidi, J. Goings, B. Peng, A. Petrone, 
 T. Henderson, D. Ranasinghe, V. G. Zakrzewski, J. Gao, N. Rega, 
 G. Zheng, W. Liang, M. Hada, M. Ehara, K. Toyota, R. Fukuda, 
 J. Hasegawa, M. Ishida, T. Nakajima, Y. Honda, O. Kitao, H. Nakai, 
 T. Vreven, K. Throssell, J. A. Montgomery, Jr., J. E. Peralta, 
 F. Ogliaro, M. J. Bearpark, J. J. Heyd, E. N. Brothers, K. N. Kudin, 
 V. N. Staroverov, T. A. Keith, R. Kobayashi, J. Normand, 
 K. Raghavachari, A. P. Rendell, J. C. Burant, S. S. Iyengar, 
 J. Tomasi, M. Cossi, J. M. Millam, M. Klene, C. Adamo, R. Cammi, 
 J. W. Ochterski, R. L. Martin, K. Morokuma, O. Farkas, 
 J. B. Foresman, and D. J. Fox, Gaussian, Inc., Wallingford CT, 2016.
 
 ******************************************
 Gaussian 16:  ES64L-G16RevB.01 20-Dec-2017
                11-Jun-2021 
 ******************************************
 %mem=8gb
 -----------------------------------
 #N TD(NStates=10) M062X/6-311G(d,p)
 -----------------------------------
 1/38=1,172=1/1;
 2/12=2,17=6,18=5,40=1/2;
 3/5=4,6=6,7=101,11=9,25=1,30=1,74=-55/1,2,3,8;
 4//1;
 5/5=2,38=5/2;
 8/6=1,10=2,108=10/1;
 9/41=10,42=1,70=2/14;
 6/7=2,8=2,9=2,10=2/1;
 99/5=1,9=1/99;
 ----
 Name
 ----
 Symbolic Z-matrix:
 Charge =  0 Multiplicity = 1
 6                     0.93737  -3.07345  -0.18667 
 6                     2.12287  -2.11525  -0.08166 
 6                     1.67932  -0.8041    0.06845 
 6                     0.24933  -0.78717   0.07773 
 16                   -1.03641   0.36103   0.21552 
 6                    -2.23886  -0.92615   0.05558 
 6                    -3.66345  -0.61872   0.08808 
 6                    -4.16707   0.63979  -0.28462 
 6                    -5.52322   0.91821  -0.26005 
 6                    -6.45364  -0.05647   0.14537 
 7                    -7.82802   0.22115   0.17817 
 6                    -8.3007    1.55297   0.38581 
 6                    -9.2542    2.10972  -0.46577 
 1                    -9.62521   1.52842  -1.30142 
 6                    -9.74567   3.39753  -0.25291 
 6                    -9.267     4.15743   0.81702 
 6                    -8.3043    3.60531   1.67269 
 6                    -7.83674   2.31876   1.46616 
 1                    -7.10302   1.89706   2.14277 
 1                    -7.95078   4.20256   2.50434 
 8                    -9.66831   5.42528   1.11427 
 6                    -10.64223   6.03995   0.28244 
 1                    -10.28531   6.13903  -0.74886 
 1                    -11.58568   5.48251   0.28856 
 1                    -10.80803   7.03089   0.70155 
 1                    -10.48879   3.79437  -0.93121 
 6                    -8.79054  -0.816    -0.01459 
 6                    -8.70689  -1.68172  -1.10535 
 6                    -9.64725  -2.69412  -1.29497 
 6                    -10.70787  -2.83637  -0.39654 
 6                    -10.80507  -1.9603    0.69236 
 6                    -9.85575  -0.97086   0.88449 
 1                    -9.93578  -0.30347   1.73416 
 1                    -11.63103  -2.0851    1.38194 
 8                    -11.68672  -3.78038  -0.48918 
 6                    -11.64573  -4.69413  -1.57594 
 1                    -11.72295  -4.17736  -2.53919 
 1                    -10.73103  -5.29752  -1.55983 
 1                    -12.50803  -5.34631  -1.44855 
 1                    -9.54839  -3.34875  -2.15031 
 1                    -7.89486  -1.56908  -1.81389 
 6                    -5.95718  -1.31887   0.52374 
 6                    -4.60013  -1.58717   0.49474 
 1                    -4.25383  -2.55733   0.83193 
 1                    -6.64587  -2.0827    0.86097 
 1                    -5.87359   1.89365  -0.57133 
 1                    -3.48639   1.40814  -0.63469 
 6                    -1.62549  -2.16105  -0.07841 
 6                    -0.21972  -2.0834   -0.06482 
 1                    -2.19197  -3.07258  -0.2147 
 16                    2.97765   0.32206   0.18497 
 6                     4.16218  -0.98809   0.01242 
 6                     3.51621  -2.21773  -0.11396 
 1                     4.06458  -3.14215  -0.24465 
 6                     5.56705  -0.7373    0.04514 
 16                    6.68086  -2.03652   0.37656 
 6                     8.11724  -1.00735   0.24972 
 6                     7.69972   0.29807  -0.01318 
 6                     6.28361   0.45519  -0.1447 
 6                     5.91829   1.77686  -0.54353 
 6                     7.00203   2.58067  -0.71621 
 16                    8.54275   1.78183  -0.38 
 6                     6.92949   3.99545  -1.12736 
 8                     5.9002    4.58649  -1.35272 
 8                     8.15699   4.5424   -1.22147 
 6                     8.20206   5.92907  -1.60434 
 1                     7.75699   6.06463  -2.59108 
 1                     7.66179   6.53969  -0.87974 
 1                     9.25704   6.19099  -1.61758 
 1                     4.91461   2.13592  -0.71661 
 6                     9.37614  -1.65344   0.3541 
 6                     10.62216  -1.15892   0.65376 
 6                     10.83171   0.14424   1.17759 
 7                     10.99525   1.19398   1.63525 
 6                     11.83447  -2.03674   0.64516 
 8                     11.76302  -3.14754  -0.14686 
 1                     11.0612  -3.0442   -0.79945 
 8                     12.81695  -1.81893   1.29612 
 1                     9.33135  -2.73041   0.20604 
 6                     0.91727  -3.80042  -1.54825 
 1                     0.92417  -3.0863   -2.37401 
 1                     1.78943  -4.45222  -1.6488 
 1                     0.02102  -4.42022  -1.63746 
 6                     0.93018  -4.09326   0.97224 
 1                     0.94722  -3.58743   1.93955 
 1                     0.0336   -4.71732   0.9264 
 1                     1.80217  -4.75016   0.91157 
 
 Stoichiometry    C43H32N2O6S4
 Framework group  C1[X(C43H32N2O6S4)]
 Deg. of freedom   255
 Full point group                 C1      NOp   1
 Largest Abelian subgroup         C1      NOp   1
 Largest concise Abelian subgroup C1      NOp   1
                         Standard orientation:                         
 ---------------------------------------------------------------------
 Center     Atomic      Atomic             Coordinates (Angstroms)
 Number     Number       Type             X           Y           Z
 ---------------------------------------------------------------------
      1          6           0       -0.937367   -3.073447    0.186672
      2          6           0       -2.122867   -2.115248    0.081661
      3          6           0       -1.679316   -0.804099   -0.068452
      4          6           0       -0.249325   -0.787165   -0.077728
      5         16           0        1.036410    0.361025   -0.215518
      6          6           0        2.238860   -0.926149   -0.055578
      7          6           0        3.663445   -0.618716   -0.088081
      8          6           0        4.167072    0.639785    0.284618
      9          6           0        5.523215    0.918205    0.260048
     10          6           0        6.453643   -0.056471   -0.145370
     11          7           0        7.828021    0.221147   -0.178165
     12          6           0        8.300703    1.552970   -0.385806
     13          6           0        9.254197    2.109715    0.465769
     14          1           0        9.625209    1.528423    1.301420
     15          6           0        9.745666    3.397532    0.252908
     16          6           0        9.267005    4.157431   -0.817016
     17          6           0        8.304305    3.605310   -1.672687
     18          6           0        7.836741    2.318757   -1.466163
     19          1           0        7.103023    1.897060   -2.142771
     20          1           0        7.950783    4.202556   -2.504337
     21          8           0        9.668305    5.425275   -1.114274
     22          6           0       10.642233    6.039950   -0.282435
     23          1           0       10.285306    6.139026    0.748855
     24          1           0       11.585682    5.482513   -0.288556
     25          1           0       10.808033    7.030888   -0.701547
     26          1           0       10.488787    3.794368    0.931210
     27          6           0        8.790537   -0.816003    0.014590
     28          6           0        8.706892   -1.681719    1.105345
     29          6           0        9.647255   -2.694117    1.294967
     30          6           0       10.707870   -2.836370    0.396541
     31          6           0       10.805065   -1.960304   -0.692355
     32          6           0        9.855745   -0.970857   -0.884487
     33          1           0        9.935782   -0.303465   -1.734163
     34          1           0       11.631034   -2.085101   -1.381938
     35          8           0       11.686719   -3.780380    0.489179
     36          6           0       11.645727   -4.694126    1.575939
     37          1           0       11.722954   -4.177359    2.539191
     38          1           0       10.731032   -5.297522    1.559834
     39          1           0       12.508032   -5.346312    1.448547
     40          1           0        9.548391   -3.348753    2.150306
     41          1           0        7.894861   -1.569078    1.813892
     42          6           0        5.957184   -1.318867   -0.523743
     43          6           0        4.600126   -1.587169   -0.494737
     44          1           0        4.253834   -2.557328   -0.831925
     45          1           0        6.645870   -2.082701   -0.860973
     46          1           0        5.873589    1.893646    0.571326
     47          1           0        3.486389    1.408137    0.634689
     48          6           0        1.625489   -2.161053    0.078410
     49          6           0        0.219718   -2.083396    0.064821
     50          1           0        2.191968   -3.072577    0.214700
     51         16           0       -2.977646    0.322058   -0.184968
     52          6           0       -4.162184   -0.988087   -0.012416
     53          6           0       -3.516210   -2.217730    0.113955
     54          1           0       -4.064580   -3.142153    0.244654
     55          6           0       -5.567054   -0.737299   -0.045138
     56         16           0       -6.680862   -2.036515   -0.376555
     57          6           0       -8.117241   -1.007346   -0.249715
     58          6           0       -7.699721    0.298072    0.013178
     59          6           0       -6.283611    0.455188    0.144695
     60          6           0       -5.918293    1.776862    0.543528
     61          6           0       -7.002029    2.580666    0.716207
     62         16           0       -8.542754    1.781825    0.380001
     63          6           0       -6.929485    3.995445    1.127359
     64          8           0       -5.900200    4.586493    1.352715
     65          8           0       -8.156994    4.542399    1.221469
     66          6           0       -8.202058    5.929065    1.604344
     67          1           0       -7.756993    6.064628    2.591080
     68          1           0       -7.661788    6.539691    0.879736
     69          1           0       -9.257040    6.190991    1.617581
     70          1           0       -4.914608    2.135918    0.716605
     71          6           0       -9.376140   -1.653440   -0.354095
     72          6           0      -10.622163   -1.158916   -0.653764
     73          6           0      -10.831709    0.144243   -1.177590
     74          7           0      -10.995247    1.193976   -1.635252
     75          6           0      -11.834467   -2.036742   -0.645164
     76          8           0      -11.763023   -3.147544    0.146859
     77          1           0      -11.061204   -3.044195    0.799445
     78          8           0      -12.816952   -1.818928   -1.296115
     79          1           0       -9.331350   -2.730405   -0.206037
     80          6           0       -0.917271   -3.800420    1.548251
     81          1           0       -0.924169   -3.086302    2.374015
     82          1           0       -1.789433   -4.452223    1.648799
     83          1           0       -0.021019   -4.420217    1.637464
     84          6           0       -0.930182   -4.093261   -0.972236
     85          1           0       -0.947217   -3.587426   -1.939546
     86          1           0       -0.033600   -4.717316   -0.926403
     87          1           0       -1.802170   -4.750158   -0.911574
 ---------------------------------------------------------------------
 Rotational constants (GHZ):           0.0816788           0.0106340           0.0095919
 Standard basis: 6-311G(d,p) (5D, 7F)
 There are  1269 symmetry adapted cartesian basis functions of A   symmetry.
 There are  1214 symmetry adapted basis functions of A   symmetry.
  1214 basis functions,  2072 primitive gaussians,  1269 cartesian basis functions
   208 alpha electrons      208 beta electrons
       nuclear repulsion energy      7134.6351005501 Hartrees.
 NAtoms=   87 NActive=   87 NUniq=   87 SFac= 1.00D+00 NAtFMM=   60 NAOKFM=T Big=T
 Integral buffers will be    131072 words long.
 Regular integral format.
 Two-electron integral symmetry is turned on.
 One-electron integrals computed using PRISM.
 NBasis=  1214 RedAO= T EigKep=  1.41D-04  NBF=  1214
 NBsUse=  1214 1.00D-06 EigRej= -1.00D+00 NBFU=  1214
 ExpMin= 7.71D-02 ExpMax= 9.34D+04 ExpMxC= 3.17D+03 IAcc=3 IRadAn=         5 AccDes= 0.00D+00
 Harris functional with IExCor= 1009 and IRadAn=       5 diagonalized for initial guess.
 HarFok:  IExCor= 1009 AccDes= 0.00D+00 IRadAn=         5 IDoV= 1 UseB2=F ITyADJ=14
 ICtDFT=  3500011 ScaDFX=  1.000000  1.000000  1.000000  1.000000
 FoFCou: FMM=F IPFlag=           0 FMFlag=      100000 FMFlg1=        2001
         NFxFlg=           0 DoJE=T BraDBF=F KetDBF=T FulRan=T
         wScrn=  0.000000 ICntrl=       500 IOpCl=  0 I1Cent=   200000004 NGrid=           0
         NMat0=    1 NMatS0=      1 NMatT0=    0 NMatD0=    1 NMtDS0=    0 NMtDT0=    0
 Petite list used in FoFCou.
 Requested convergence on RMS density matrix=1.00D-08 within 128 cycles.
 Requested convergence on MAX density matrix=1.00D-06.
 Requested convergence on             energy=1.00D-06.
 No special actions if energy rises.
 Integral accuracy reduced to 1.0D-05 until final iterations.
 Initial convergence to 1.0D-05 achieved.  Increase integral accuracy.
 SCF Done:  E(RM062X) =  -3811.04772542     A.U. after   17 cycles
            NFock= 17  Conv=0.59D-08     -V/T= 2.0028
 DoSCS=F DFT=T ScalE2(SS,OS)=  1.000000  1.000000
 ExpMin= 7.71D-02 ExpMax= 9.34D+04 ExpMxC= 3.17D+03 IAcc=3 IRadAn=         5 AccDes= 0.00D+00
 HarFok:  IExCor=  205 AccDes= 0.00D+00 IRadAn=         5 IDoV=-2 UseB2=F ITyADJ=14
 ICtDFT= 12500011 ScaDFX=  1.000000  1.000000  1.000000  1.000000
 GSVD:  LWork=       -5609 too small for GESVD, short by       26270 words or       26270 for optimal perf.
 Range of M.O.s used for correlation:    72  1214
 NBasis=  1214 NAE=   208 NBE=   208 NFC=    71 NFV=     0
 NROrb=   1143 NOA=   137 NOB=   137 NVA=  1006 NVB=  1006

 **** Warning!!: The largest alpha MO coefficient is  0.13335823D+02

 Orbital symmetries:
       Occupied  (A) (A) (A) (A) (A) (A) (A) (A) (A) (A) (A) (A)
                 (A) (A) (A) (A) (A) (A) (A) (A) (A) (A) (A) (A)
                 (A) (A) (A) (A) (A) (A) (A) (A) (A) (A) (A) (A)
                 (A) (A) (A) (A) (A) (A) (A) (A) (A) (A) (A) (A)
                 (A) (A) (A) (A) (A) (A) (A) (A) (A) (A) (A) (A)
                 (A) (A) (A) (A) (A) (A) (A) (A) (A) (A) (A) (A)
                 (A) (A) (A) (A) (A) (A) (A) (A) (A) (A) (A) (A)
                 (A) (A) (A) (A) (A) (A) (A) (A) (A) (A) (A) (A)
                 (A) (A) (A) (A) (A) (A) (A) (A) (A) (A) (A) (A)
                 (A) (A) (A) (A) (A) (A) (A) (A) (A) (A) (A) (A)
                 (A) (A) (A) (A) (A) (A) (A) (A) (A) (A) (A) (A)
                 (A) (A) (A) (A) (A) (A) (A) (A) (A) (A) (A) (A)
                 (A) (A) (A) (A) (A) (A) (A) (A) (A) (A) (A) (A)
                 (A) (A) (A) (A) (A) (A) (A) (A) (A) (A) (A) (A)
                 (A) (A) (A) (A) (A) (A) (A) (A) (A) (A) (A) (A)
                 (A) (A) (A) (A) (A) (A) (A) (A) (A) (A) (A) (A)
                 (A) (A) (A) (A) (A) (A) (A) (A) (A) (A) (A) (A)
                 (A) (A) (A) (A)
       Virtual   (A) (A) (A) (A) (A) (A) (A) (A) (A) (A) (A) (A)
                 (A) (A) (A) (A) (A) (A) (A) (A) (A) (A) (A) (A)
                 (A) (A) (A) (A) (A) (A) (A) (A) (A) (A) (A) (A)
                 (A) (A) (A) (A) (A) (A) (A) (A) (A) (A) (A) (A)
                 (A) (A) (A) (A) (A) (A) (A) (A) (A) (A) (A) (A)
                 (A) (A) (A) (A) (A) (A) (A) (A) (A) (A) (A) (A)
                 (A) (A) (A) (A) (A) (A) (A) (A) (A) (A) (A) (A)
                 (A) (A) (A) (A) (A) (A) (A) (A) (A) (A) (A) (A)
                 (A) (A) (A) (A) (A) (A) (A) (A) (A) (A) (A) (A)
                 (A) (A) (A) (A) (A) (A) (A) (A) (A) (A) (A) (A)
                 (A) (A) (A) (A) (A) (A) (A) (A) (A) (A) (A) (A)
                 (A) (A) (A) (A) (A) (A) (A) (A) (A) (A) (A) (A)
                 (A) (A) (A) (A) (A) (A) (A) (A) (A) (A) (A) (A)
                 (A) (A) (A) (A) (A) (A) (A) (A) (A) (A) (A) (A)
                 (A) (A) (A) (A) (A) (A) (A) (A) (A) (A) (A) (A)
                 (A) (A) (A) (A) (A) (A) (A) (A) (A) (A) (A) (A)
                 (A) (A) (A) (A) (A) (A) (A) (A) (A) (A) (A) (A)
                 (A) (A) (A) (A) (A) (A) (A) (A) (A) (A) (A) (A)
                 (A) (A) (A) (A) (A) (A) (A) (A) (A) (A) (A) (A)
                 (A) (A) (A) (A) (A) (A) (A) (A) (A) (A) (A) (A)
                 (A) (A) (A) (A) (A) (A) (A) (A) (A) (A) (A) (A)
                 (A) (A) (A) (A) (A) (A) (A) (A) (A) (A) (A) (A)
                 (A) (A) (A) (A) (A) (A) (A) (A) (A) (A) (A) (A)
                 (A) (A) (A) (A) (A) (A) (A) (A) (A) (A) (A) (A)
                 (A) (A) (A) (A) (A) (A) (A) (A) (A) (A) (A) (A)
                 (A) (A) (A) (A) (A) (A) (A) (A) (A) (A) (A) (A)
                 (A) (A) (A) (A) (A) (A) (A) (A) (A) (A) (A) (A)
                 (A) (A) (A) (A) (A) (A) (A) (A) (A) (A) (A) (A)
                 (A) (A) (A) (A) (A) (A) (A) (A) (A) (A) (A) (A)
                 (A) (A) (A) (A) (A) (A) (A) (A) (A) (A) (A) (A)
                 (A) (A) (A) (A) (A) (A) (A) (A) (A) (A) (A) (A)
                 (A) (A) (A) (A) (A) (A) (A) (A) (A) (A) (A) (A)
                 (A) (A) (A) (A) (A) (A) (A) (A) (A) (A) (A) (A)
                 (A) (A) (A) (A) (A) (A) (A) (A) (A) (A) (A) (A)
                 (A) (A) (A) (A) (A) (A) (A) (A) (A) (A) (A) (A)
                 (A) (A) (A) (A) (A) (A) (A) (A) (A) (A) (A) (A)
                 (A) (A) (A) (A) (A) (A) (A) (A) (A) (A) (A) (A)
                 (A) (A) (A) (A) (A) (A) (A) (A) (A) (A) (A) (A)
                 (A) (A) (A) (A) (A) (A) (A) (A) (A) (A) (A) (A)
                 (A) (A) (A) (A) (A) (A) (A) (A) (A) (A) (A) (A)
                 (A) (A) (A) (A) (A) (A) (A) (A) (A) (A) (A) (A)
                 (A) (A) (A) (A) (A) (A) (A) (A) (A) (A) (A) (A)
                 (A) (A) (A) (A) (A) (A) (A) (A) (A) (A) (A) (A)
                 (A) (A) (A) (A) (A) (A) (A) (A) (A) (A) (A) (A)
                 (A) (A) (A) (A) (A) (A) (A) (A) (A) (A) (A) (A)
                 (A) (A) (A) (A) (A) (A) (A) (A) (A) (A) (A) (A)
                 (A) (A) (A) (A) (A) (A) (A) (A) (A) (A) (A) (A)
                 (A) (A) (A) (A) (A) (A) (A) (A) (A) (A) (A) (A)
                 (A) (A) (A) (A) (A) (A) (A) (A) (A) (A) (A) (A)
                 (A) (A) (A) (A) (A) (A) (A) (A) (A) (A) (A) (A)
                 (A) (A) (A) (A) (A) (A) (A) (A) (A) (A) (A) (A)
                 (A) (A) (A) (A) (A) (A) (A) (A) (A) (A) (A) (A)
                 (A) (A) (A) (A) (A) (A) (A) (A) (A) (A) (A) (A)
                 (A) (A) (A) (A) (A) (A) (A) (A) (A) (A) (A) (A)
                 (A) (A) (A) (A) (A) (A) (A) (A) (A) (A) (A) (A)
                 (A) (A) (A) (A) (A) (A) (A) (A) (A) (A) (A) (A)
                 (A) (A) (A) (A) (A) (A) (A) (A) (A) (A) (A) (A)
                 (A) (A) (A) (A) (A) (A) (A) (A) (A) (A) (A) (A)
                 (A) (A) (A) (A) (A) (A) (A) (A) (A) (A) (A) (A)
                 (A) (A) (A) (A) (A) (A) (A) (A) (A) (A) (A) (A)
                 (A) (A) (A) (A) (A) (A) (A) (A) (A) (A) (A) (A)
                 (A) (A) (A) (A) (A) (A) (A) (A) (A) (A) (A) (A)
                 (A) (A) (A) (A) (A) (A) (A) (A) (A) (A) (A) (A)
                 (A) (A) (A) (A) (A) (A) (A) (A) (A) (A) (A) (A)
                 (A) (A) (A) (A) (A) (A) (A) (A) (A) (A) (A) (A)
                 (A) (A) (A) (A) (A) (A) (A) (A) (A) (A) (A) (A)
                 (A) (A) (A) (A) (A) (A) (A) (A) (A) (A) (A) (A)
                 (A) (A) (A) (A) (A) (A) (A) (A) (A) (A) (A) (A)
                 (A) (A) (A) (A) (A) (A) (A) (A) (A) (A) (A) (A)
                 (A) (A) (A) (A) (A) (A) (A) (A) (A) (A) (A) (A)
                 (A) (A) (A) (A) (A) (A) (A) (A) (A) (A) (A) (A)
                 (A) (A) (A) (A) (A) (A) (A) (A) (A) (A) (A) (A)
                 (A) (A) (A) (A) (A) (A) (A) (A) (A) (A) (A) (A)
                 (A) (A) (A) (A) (A) (A) (A) (A) (A) (A) (A) (A)
                 (A) (A) (A) (A) (A) (A) (A) (A) (A) (A) (A) (A)
                 (A) (A) (A) (A) (A) (A) (A) (A) (A) (A) (A) (A)
                 (A) (A) (A) (A) (A) (A) (A) (A) (A) (A) (A) (A)
                 (A) (A) (A) (A) (A) (A) (A) (A) (A) (A) (A) (A)
                 (A) (A) (A) (A) (A) (A) (A) (A) (A) (A) (A) (A)
                 (A) (A) (A) (A) (A) (A) (A) (A) (A) (A) (A) (A)
                 (A) (A) (A) (A) (A) (A) (A) (A) (A) (A) (A) (A)
                 (A) (A) (A) (A) (A) (A) (A) (A) (A) (A) (A) (A)
                 (A) (A) (A) (A) (A) (A) (A) (A) (A) (A) (A) (A)
                 (A) (A) (A) (A) (A) (A) (A) (A) (A) (A)
    40 initial guesses have been made.
 Convergence on wavefunction:    0.001000000000000
 Iteration     1 Dimension    40 NMult     0 NNew     40
 CISAX will form    40 AO SS matrices at one time.
 New state      7 was old state     10
 New state      8 was old state     11
 New state      9 was old state     18
 New state     10 was old state      8
 Iteration     2 Dimension    60 NMult    40 NNew     20
 New state      6 was old state      7
 New state      7 was old state      8
 New state      8 was old state      6
 Iteration     3 Dimension    80 NMult    60 NNew     20
 Iteration     4 Dimension   100 NMult    80 NNew     20
 Iteration     5 Dimension   120 NMult   100 NNew     20
 Iteration     6 Dimension   134 NMult   120 NNew     14
 Iteration     7 Dimension   142 NMult   134 NNew      8
 Iteration     8 Dimension   146 NMult   142 NNew      4
 Iteration     9 Dimension   150 NMult   146 NNew      4
 Iteration    10 Dimension   154 NMult   150 NNew      4
 Iteration    11 Dimension   158 NMult   154 NNew      4
 ***********************************************************************
 Excited states from <AA,BB:AA,BB> singles matrix:
 ***********************************************************************
 
 Ground to excited state transition densities written to RWF  633
 Ground to excited state transition electric dipole moments (Au):
       state          X           Y           Z        Dip. S.      Osc.
         1         5.7056     -0.2017      0.1649     32.6218      1.8286
         2         0.1473      0.1702     -0.2365      0.1066      0.0081
         3        -0.6416      0.6195      0.3962      0.9524      0.0802
         4         1.7926      0.9715      0.2696      4.2300      0.3837
         5         1.1200      0.2079     -0.0016      1.2976      0.1181
         6        -0.1497     -0.0979      0.4888      0.2709      0.0269
         7        -0.1586     -1.1030     -0.3458      1.3614      0.1380
         8         0.7324      0.2681      0.0629      0.6123      0.0638
         9         0.6111     -0.1417     -0.1285      0.4100      0.0444
        10        -0.0686      0.5942      0.1954      0.3959      0.0431
 Ground to excited state transition velocity dipole moments (Au):
       state          X           Y           Z        Dip. S.      Osc.
         1        -0.4893      0.0197     -0.0165      0.2401      1.9037
         2        -0.0164     -0.0219      0.0293      0.0016      0.0094
         3         0.0894     -0.0812     -0.0530      0.0174      0.0918
         4        -0.2507     -0.1408     -0.0409      0.0843      0.4132
         5        -0.1549     -0.0321     -0.0002      0.0250      0.1222
         6         0.0223      0.0111     -0.0936      0.0094      0.0420
         7         0.0246      0.1651      0.0510      0.0305      0.1335
         8        -0.1212     -0.0419     -0.0079      0.0165      0.0705
         9        -0.1057      0.0251      0.0186      0.0121      0.0499
        10         0.0123     -0.0932     -0.0402      0.0105      0.0428
 Ground to excited state transition magnetic dipole moments (Au):
       state          X           Y           Z
         1         0.0136     -0.2214     -1.4070
         2        -0.1041      0.4997     -0.4627
         3         0.1470     -0.7302      1.3859
         4         0.0088     -0.3485      0.3219
         5        -0.0164      0.1153     -0.5752
         6        -0.0446      1.6242      1.2719
         7        -0.0766      0.5923     -1.9470
         8        -0.0874     -0.0419     -0.1266
         9        -0.1684      0.4295     -0.5137
        10         0.1370     -0.7233      0.6211
 Ground to excited state transition velocity quadrupole moments (Au):
       state          XX          YY          ZZ          XY          XZ          YZ
         1         4.3198     -0.0593      0.0217      0.1706      0.4186      0.1340
         2        -7.4663     -0.1176     -0.0582     -0.6579     -0.6145      0.0458
         3         5.1786     -0.4191      0.0324      1.7583      0.9973     -0.2037
         4        -3.3143     -0.7015     -0.0372      0.9559      0.6134     -0.0420
         5        -1.4703     -0.2608     -0.0271      0.3204      0.0096     -0.0548
         6         0.2310      0.0808      0.0475      0.3072     -1.4492     -0.0223
         7         0.3131      0.5912     -0.0012     -2.3469     -0.7269      0.1845
         8        -3.4768     -0.4355     -0.0410     -0.0934      0.1215      0.1671
         9        -3.5306     -0.0947     -0.0563     -0.9383     -0.6372      0.2394
        10         2.4206     -0.3025      0.0304      1.3786      0.8211     -0.1383
 <0|del|b> * <b|rxdel|0> + <0|del|b> * <b|delr+rdel|0>
 Rotatory Strengths (R) in cgs (10**-40 erg-esu-cm/Gauss)
       state          XX          YY          ZZ    R(velocity)    E-M Angle
         1        32.8727   -194.1551    264.2069     34.3082       89.00
         2      -177.0581     20.6578     15.3873    -47.0043      145.60
         3       -73.9049     41.1158     26.9894     -1.9332       90.29
         4       216.1810     88.9981   -130.0234     58.3852       75.84
         5        -8.6582     28.9730    -25.7420     -1.8091       90.65
         6      -270.4567   -218.1320      3.4165   -161.7240      120.71
         7        -2.5954     53.5618    -66.5854     -5.2063       90.54
         8        19.4154    -21.2808     62.2833     20.1393       49.36
         9        -0.5436      0.8798     82.4954     27.6105       75.53
        10       137.8662     65.9857    -12.4320     63.8066       63.37
 1/2[<0|r|b>*<b|rxdel|0> + (<0|rxdel|b>*<b|r|0>)*]
 Rotatory Strengths (R) in cgs (10**-40 erg-esu-cm/Gauss)
       state          XX          YY          ZZ     R(length)
         1       -54.6975    -31.5779    164.0762     25.9336
         2        10.8452    -60.1472    -77.3959    -42.2327
         3        66.7183    319.8662   -388.2790     -0.5648
         4       -11.1271    239.4033    -61.3733     55.6343
         5        13.0275    -16.9469     -0.6697     -1.5297
         6        -4.7210    112.4278   -439.6227   -110.6386
         7        -8.5989    462.0260   -476.0955     -7.5562
         8        45.2659      7.9519      5.6287     19.6155
         9        72.7788     43.0507    -46.6876     23.0473
        10         6.6445    303.9316    -85.8368     74.9131
  1/2[<0|del|b>*<b|r|0> + (<0|r|b>*<b|del|0>)*] (Au)
       state          X           Y           Z        Dip. S.   Osc.(frdel)
         1        -2.7919     -0.0040     -0.0027      2.7986      1.8657
         2        -0.0024     -0.0037     -0.0069      0.0131      0.0087
         3        -0.0573     -0.0503     -0.0210      0.1287      0.0858
         4        -0.4494     -0.1368     -0.0110      0.5972      0.3981
         5        -0.1735     -0.0067      0.0000      0.1801      0.1201
         6        -0.0033     -0.0011     -0.0457      0.0502      0.0334
         7        -0.0039     -0.1821     -0.0176      0.2036      0.1358
         8        -0.0888     -0.0112     -0.0005      0.1005      0.0670
         9        -0.0646     -0.0036     -0.0024      0.0705      0.0470
        10        -0.0008     -0.0554     -0.0079      0.0641      0.0427

 Excitation energies and oscillator strengths:
 
 Excited State   1:      Singlet-A      2.2880 eV  541.89 nm  f=1.8286  <S**2>=0.000
     207 -> 209       -0.30530
     208 -> 209        0.61620
 This state for optimization and/or second-order correction.
 Total Energy, E(TD-HF/TD-DFT) =  -3810.96364297    
 Copying the excited state density for this state as the 1-particle RhoCI density.
 
 Excited State   2:      Singlet-A      3.1076 eV  398.97 nm  f=0.0081  <S**2>=0.000
     206 -> 209        0.26322
     207 -> 209        0.57317
     208 -> 209        0.26031
     208 -> 210       -0.10997
     208 -> 211        0.10351
 
 Excited State   3:      Singlet-A      3.4368 eV  360.76 nm  f=0.0802  <S**2>=0.000
     206 -> 210       -0.11409
     206 -> 211       -0.10154
     207 -> 210       -0.36314
     208 -> 209        0.13629
     208 -> 210        0.52972
     208 -> 211       -0.13373
 
 Excited State   4:      Singlet-A      3.7026 eV  334.86 nm  f=0.3837  <S**2>=0.000
     204 -> 209       -0.15466
     206 -> 209       -0.32587
     207 -> 210       -0.18903
     208 -> 211        0.51384
     208 -> 213       -0.10446
 
 Excited State   5:      Singlet-A      3.7155 eV  333.69 nm  f=0.1181  <S**2>=0.000
     203 -> 209        0.11464
     204 -> 209        0.20342
     206 -> 209        0.47369
     206 -> 210       -0.12794
     207 -> 209       -0.20455
     207 -> 210       -0.11701
     207 -> 211       -0.13529
     208 -> 209       -0.13461
     208 -> 211        0.28852
 
 Excited State   6:      Singlet-A      4.0471 eV  306.35 nm  f=0.0269  <S**2>=0.000
     207 -> 212        0.30314
     208 -> 212        0.59748
 
 Excited State   7:      Singlet-A      4.1387 eV  299.57 nm  f=0.1380  <S**2>=0.000
     202 -> 209       -0.32481
     203 -> 209        0.56695
     206 -> 209       -0.10534
     208 -> 210       -0.12040
 
 Excited State   8:      Singlet-A      4.2499 eV  291.73 nm  f=0.0638  <S**2>=0.000
     207 -> 210       -0.33821
     207 -> 211        0.41625
     208 -> 210       -0.20367
     208 -> 211       -0.11769
     208 -> 213       -0.27960
     208 -> 214        0.10307
 
 Excited State   9:      Singlet-A      4.4186 eV  280.60 nm  f=0.0444  <S**2>=0.000
     198 -> 209        0.18107
     204 -> 209        0.12013
     206 -> 210        0.25659
     207 -> 210        0.22289
     207 -> 211        0.21852
     207 -> 213       -0.11755
     208 -> 210        0.29082
     208 -> 211        0.15563
     208 -> 213       -0.16506
     208 -> 214        0.25937
 
 Excited State  10:      Singlet-A      4.4383 eV  279.35 nm  f=0.0431  <S**2>=0.000
     197 -> 209        0.14067
     198 -> 209        0.23043
     202 -> 209        0.15976
     206 -> 214       -0.12115
     207 -> 210       -0.17327
     207 -> 213       -0.18903
     207 -> 214       -0.26278
     208 -> 210       -0.16060
     208 -> 213        0.29196
     208 -> 214        0.21763
 SavETr:  write IOETrn=   770 NScale= 10 NData=  16 NLR=1 NState=   10 LETran=     190.

 **********************************************************************

            Population analysis using the SCF Density.

 **********************************************************************

 Orbital symmetries:
       Occupied  (A) (A) (A) (A) (A) (A) (A) (A) (A) (A) (A) (A)
                 (A) (A) (A) (A) (A) (A) (A) (A) (A) (A) (A) (A)
                 (A) (A) (A) (A) (A) (A) (A) (A) (A) (A) (A) (A)
                 (A) (A) (A) (A) (A) (A) (A) (A) (A) (A) (A) (A)
                 (A) (A) (A) (A) (A) (A) (A) (A) (A) (A) (A) (A)
                 (A) (A) (A) (A) (A) (A) (A) (A) (A) (A) (A) (A)
                 (A) (A) (A) (A) (A) (A) (A) (A) (A) (A) (A) (A)
                 (A) (A) (A) (A) (A) (A) (A) (A) (A) (A) (A) (A)
                 (A) (A) (A) (A) (A) (A) (A) (A) (A) (A) (A) (A)
                 (A) (A) (A) (A) (A) (A) (A) (A) (A) (A) (A) (A)
                 (A) (A) (A) (A) (A) (A) (A) (A) (A) (A) (A) (A)
                 (A) (A) (A) (A) (A) (A) (A) (A) (A) (A) (A) (A)
                 (A) (A) (A) (A) (A) (A) (A) (A) (A) (A) (A) (A)
                 (A) (A) (A) (A) (A) (A) (A) (A) (A) (A) (A) (A)
                 (A) (A) (A) (A) (A) (A) (A) (A) (A) (A) (A) (A)
                 (A) (A) (A) (A) (A) (A) (A) (A) (A) (A) (A) (A)
                 (A) (A) (A) (A) (A) (A) (A) (A) (A) (A) (A) (A)
                 (A) (A) (A) (A)
       Virtual   (A) (A) (A) (A) (A) (A) (A) (A) (A) (A) (A) (A)
                 (A) (A) (A) (A) (A) (A) (A) (A) (A) (A) (A) (A)
                 (A) (A) (A) (A) (A) (A) (A) (A) (A) (A) (A) (A)
                 (A) (A) (A) (A) (A) (A) (A) (A) (A) (A) (A) (A)
                 (A) (A) (A) (A) (A) (A) (A) (A) (A) (A) (A) (A)
                 (A) (A) (A) (A) (A) (A) (A) (A) (A) (A) (A) (A)
                 (A) (A) (A) (A) (A) (A) (A) (A) (A) (A) (A) (A)
                 (A) (A) (A) (A) (A) (A) (A) (A) (A) (A) (A) (A)
                 (A) (A) (A) (A) (A) (A) (A) (A) (A) (A) (A) (A)
                 (A) (A) (A) (A) (A) (A) (A) (A) (A) (A) (A) (A)
                 (A) (A) (A) (A) (A) (A) (A) (A) (A) (A) (A) (A)
                 (A) (A) (A) (A) (A) (A) (A) (A) (A) (A) (A) (A)
                 (A) (A) (A) (A) (A) (A) (A) (A) (A) (A) (A) (A)
                 (A) (A) (A) (A) (A) (A) (A) (A) (A) (A) (A) (A)
                 (A) (A) (A) (A) (A) (A) (A) (A) (A) (A) (A) (A)
                 (A) (A) (A) (A) (A) (A) (A) (A) (A) (A) (A) (A)
                 (A) (A) (A) (A) (A) (A) (A) (A) (A) (A) (A) (A)
                 (A) (A) (A) (A) (A) (A) (A) (A) (A) (A) (A) (A)
                 (A) (A) (A) (A) (A) (A) (A) (A) (A) (A) (A) (A)
                 (A) (A) (A) (A) (A) (A) (A) (A) (A) (A) (A) (A)
                 (A) (A) (A) (A) (A) (A) (A) (A) (A) (A) (A) (A)
                 (A) (A) (A) (A) (A) (A) (A) (A) (A) (A) (A) (A)
                 (A) (A) (A) (A) (A) (A) (A) (A) (A) (A) (A) (A)
                 (A) (A) (A) (A) (A) (A) (A) (A) (A) (A) (A) (A)
                 (A) (A) (A) (A) (A) (A) (A) (A) (A) (A) (A) (A)
                 (A) (A) (A) (A) (A) (A) (A) (A) (A) (A) (A) (A)
                 (A) (A) (A) (A) (A) (A) (A) (A) (A) (A) (A) (A)
                 (A) (A) (A) (A) (A) (A) (A) (A) (A) (A) (A) (A)
                 (A) (A) (A) (A) (A) (A) (A) (A) (A) (A) (A) (A)
                 (A) (A) (A) (A) (A) (A) (A) (A) (A) (A) (A) (A)
                 (A) (A) (A) (A) (A) (A) (A) (A) (A) (A) (A) (A)
                 (A) (A) (A) (A) (A) (A) (A) (A) (A) (A) (A) (A)
                 (A) (A) (A) (A) (A) (A) (A) (A) (A) (A) (A) (A)
                 (A) (A) (A) (A) (A) (A) (A) (A) (A) (A) (A) (A)
                 (A) (A) (A) (A) (A) (A) (A) (A) (A) (A) (A) (A)
                 (A) (A) (A) (A) (A) (A) (A) (A) (A) (A) (A) (A)
                 (A) (A) (A) (A) (A) (A) (A) (A) (A) (A) (A) (A)
                 (A) (A) (A) (A) (A) (A) (A) (A) (A) (A) (A) (A)
                 (A) (A) (A) (A) (A) (A) (A) (A) (A) (A) (A) (A)
                 (A) (A) (A) (A) (A) (A) (A) (A) (A) (A) (A) (A)
                 (A) (A) (A) (A) (A) (A) (A) (A) (A) (A) (A) (A)
                 (A) (A) (A) (A) (A) (A) (A) (A) (A) (A) (A) (A)
                 (A) (A) (A) (A) (A) (A) (A) (A) (A) (A) (A) (A)
                 (A) (A) (A) (A) (A) (A) (A) (A) (A) (A) (A) (A)
                 (A) (A) (A) (A) (A) (A) (A) (A) (A) (A) (A) (A)
                 (A) (A) (A) (A) (A) (A) (A) (A) (A) (A) (A) (A)
                 (A) (A) (A) (A) (A) (A) (A) (A) (A) (A) (A) (A)
                 (A) (A) (A) (A) (A) (A) (A) (A) (A) (A) (A) (A)
                 (A) (A) (A) (A) (A) (A) (A) (A) (A) (A) (A) (A)
                 (A) (A) (A) (A) (A) (A) (A) (A) (A) (A) (A) (A)
                 (A) (A) (A) (A) (A) (A) (A) (A) (A) (A) (A) (A)
                 (A) (A) (A) (A) (A) (A) (A) (A) (A) (A) (A) (A)
                 (A) (A) (A) (A) (A) (A) (A) (A) (A) (A) (A) (A)
                 (A) (A) (A) (A) (A) (A) (A) (A) (A) (A) (A) (A)
                 (A) (A) (A) (A) (A) (A) (A) (A) (A) (A) (A) (A)
                 (A) (A) (A) (A) (A) (A) (A) (A) (A) (A) (A) (A)
                 (A) (A) (A) (A) (A) (A) (A) (A) (A) (A) (A) (A)
                 (A) (A) (A) (A) (A) (A) (A) (A) (A) (A) (A) (A)
                 (A) (A) (A) (A) (A) (A) (A) (A) (A) (A) (A) (A)
                 (A) (A) (A) (A) (A) (A) (A) (A) (A) (A) (A) (A)
                 (A) (A) (A) (A) (A) (A) (A) (A) (A) (A) (A) (A)
                 (A) (A) (A) (A) (A) (A) (A) (A) (A) (A) (A) (A)
                 (A) (A) (A) (A) (A) (A) (A) (A) (A) (A) (A) (A)
                 (A) (A) (A) (A) (A) (A) (A) (A) (A) (A) (A) (A)
                 (A) (A) (A) (A) (A) (A) (A) (A) (A) (A) (A) (A)
                 (A) (A) (A) (A) (A) (A) (A) (A) (A) (A) (A) (A)
                 (A) (A) (A) (A) (A) (A) (A) (A) (A) (A) (A) (A)
                 (A) (A) (A) (A) (A) (A) (A) (A) (A) (A) (A) (A)
                 (A) (A) (A) (A) (A) (A) (A) (A) (A) (A) (A) (A)
                 (A) (A) (A) (A) (A) (A) (A) (A) (A) (A) (A) (A)
                 (A) (A) (A) (A) (A) (A) (A) (A) (A) (A) (A) (A)
                 (A) (A) (A) (A) (A) (A) (A) (A) (A) (A) (A) (A)
                 (A) (A) (A) (A) (A) (A) (A) (A) (A) (A) (A) (A)
                 (A) (A) (A) (A) (A) (A) (A) (A) (A) (A) (A) (A)
                 (A) (A) (A) (A) (A) (A) (A) (A) (A) (A) (A) (A)
                 (A) (A) (A) (A) (A) (A) (A) (A) (A) (A) (A) (A)
                 (A) (A) (A) (A) (A) (A) (A) (A) (A) (A) (A) (A)
                 (A) (A) (A) (A) (A) (A) (A) (A) (A) (A) (A) (A)
                 (A) (A) (A) (A) (A) (A) (A) (A) (A) (A) (A) (A)
                 (A) (A) (A) (A) (A) (A) (A) (A) (A) (A) (A) (A)
                 (A) (A) (A) (A) (A) (A) (A) (A) (A) (A) (A) (A)
                 (A) (A) (A) (A) (A) (A) (A) (A) (A) (A) (A) (A)
                 (A) (A) (A) (A) (A) (A) (A) (A) (A) (A) (A) (A)
                 (A) (A) (A) (A) (A) (A) (A) (A) (A) (A)
 The electronic state is 1-A.
 Alpha  occ. eigenvalues --  -89.95754 -89.95334 -89.94270 -89.94101 -19.67734
 Alpha  occ. eigenvalues --  -19.66864 -19.65883 -19.65741 -19.62059 -19.61162
 Alpha  occ. eigenvalues --  -14.78480 -14.74925 -10.69066 -10.68671 -10.63059
 Alpha  occ. eigenvalues --  -10.61416 -10.61407 -10.61294 -10.61267 -10.61196
 Alpha  occ. eigenvalues --  -10.61040 -10.60669 -10.60227 -10.60153 -10.60066
 Alpha  occ. eigenvalues --  -10.60030 -10.59981 -10.59884 -10.59846 -10.59298
 Alpha  occ. eigenvalues --  -10.59057 -10.58958 -10.58867 -10.58689 -10.57922
 Alpha  occ. eigenvalues --  -10.57856 -10.57654 -10.56923 -10.56659 -10.56610
 Alpha  occ. eigenvalues --  -10.56086 -10.55772 -10.55721 -10.55632 -10.55470
 Alpha  occ. eigenvalues --  -10.55450 -10.55435 -10.55416 -10.55268 -10.55018
 Alpha  occ. eigenvalues --  -10.54978 -10.54970 -10.54959 -10.54943 -10.54893
 Alpha  occ. eigenvalues --   -8.32264  -8.31807  -8.30723  -8.30587  -6.24342
 Alpha  occ. eigenvalues --   -6.24115  -6.23880  -6.23866  -6.23675  -6.23414
 Alpha  occ. eigenvalues --   -6.22797  -6.22663  -6.22576  -6.22455  -6.22276
 Alpha  occ. eigenvalues --   -6.22199  -1.24445  -1.23284  -1.19879  -1.19742
 Alpha  occ. eigenvalues --   -1.15187  -1.14834  -1.08590  -1.04559  -1.03628
 Alpha  occ. eigenvalues --   -1.01634  -0.99909  -0.97771  -0.97303  -0.97242
 Alpha  occ. eigenvalues --   -0.95692  -0.94715  -0.93482  -0.89953  -0.88545
 Alpha  occ. eigenvalues --   -0.87294  -0.87067  -0.86569  -0.85961  -0.85864
 Alpha  occ. eigenvalues --   -0.85508  -0.84793  -0.84058  -0.83587  -0.83089
 Alpha  occ. eigenvalues --   -0.82016  -0.80321  -0.80076  -0.79882  -0.78330
 Alpha  occ. eigenvalues --   -0.75678  -0.73539  -0.72345  -0.72181  -0.71568
 Alpha  occ. eigenvalues --   -0.71451  -0.70824  -0.70539  -0.69120  -0.68751
 Alpha  occ. eigenvalues --   -0.66858  -0.66160  -0.65055  -0.64836  -0.63909
 Alpha  occ. eigenvalues --   -0.63716  -0.62968  -0.62849  -0.62637  -0.61538
 Alpha  occ. eigenvalues --   -0.60803  -0.59802  -0.58997  -0.57913  -0.57673
 Alpha  occ. eigenvalues --   -0.57657  -0.57243  -0.56628  -0.56074  -0.55812
 Alpha  occ. eigenvalues --   -0.55655  -0.55195  -0.55007  -0.54236  -0.53911
 Alpha  occ. eigenvalues --   -0.53441  -0.53088  -0.52998  -0.52788  -0.52338
 Alpha  occ. eigenvalues --   -0.51943  -0.51741  -0.51334  -0.50739  -0.50551
 Alpha  occ. eigenvalues --   -0.50397  -0.50191  -0.50104  -0.49841  -0.49234
 Alpha  occ. eigenvalues --   -0.49017  -0.48640  -0.48425  -0.48136  -0.47903
 Alpha  occ. eigenvalues --   -0.47755  -0.47512  -0.46995  -0.46513  -0.46202
 Alpha  occ. eigenvalues --   -0.46129  -0.45988  -0.45699  -0.45505  -0.45136
 Alpha  occ. eigenvalues --   -0.44792  -0.44434  -0.44104  -0.43887  -0.43770
 Alpha  occ. eigenvalues --   -0.43453  -0.43230  -0.42794  -0.42549  -0.42076
 Alpha  occ. eigenvalues --   -0.41653  -0.41365  -0.41003  -0.40598  -0.40541
 Alpha  occ. eigenvalues --   -0.40196  -0.40065  -0.40003  -0.39784  -0.39503
 Alpha  occ. eigenvalues --   -0.39329  -0.38582  -0.37534  -0.36887  -0.36166
 Alpha  occ. eigenvalues --   -0.34755  -0.33482  -0.32996  -0.32723  -0.32052
 Alpha  occ. eigenvalues --   -0.32000  -0.31741  -0.31632  -0.30855  -0.29356
 Alpha  occ. eigenvalues --   -0.27977  -0.24695  -0.22460
 Alpha virt. eigenvalues --   -0.09386  -0.04954  -0.03173  -0.00330   0.00290
 Alpha virt. eigenvalues --    0.01034   0.01614   0.01908   0.02079   0.02271
 Alpha virt. eigenvalues --    0.02912   0.04213   0.04359   0.05299   0.05421
 Alpha virt. eigenvalues --    0.05952   0.06363   0.06595   0.06802   0.07186
 Alpha virt. eigenvalues --    0.07327   0.07699   0.07997   0.08371   0.08613
 Alpha virt. eigenvalues --    0.08797   0.09139   0.09843   0.09990   0.10213
 Alpha virt. eigenvalues --    0.10326   0.10471   0.10762   0.10936   0.11191
 Alpha virt. eigenvalues --    0.11535   0.11862   0.12056   0.12705   0.12986
 Alpha virt. eigenvalues --    0.13112   0.13439   0.13612   0.13877   0.14109
 Alpha virt. eigenvalues --    0.14147   0.14387   0.14504   0.14990   0.15195
 Alpha virt. eigenvalues --    0.15242   0.15432   0.15510   0.16019   0.16206
 Alpha virt. eigenvalues --    0.16410   0.16636   0.17149   0.17278   0.17668
 Alpha virt. eigenvalues --    0.17743   0.18218   0.18545   0.18722   0.18818
 Alpha virt. eigenvalues --    0.19164   0.19609   0.19745   0.20318   0.20786
 Alpha virt. eigenvalues --    0.21211   0.21687   0.22140   0.22374   0.22725
 Alpha virt. eigenvalues --    0.23517   0.24152   0.24576   0.24701   0.24821
 Alpha virt. eigenvalues --    0.25220   0.25426   0.26318   0.26587   0.26747
 Alpha virt. eigenvalues --    0.27131   0.27394   0.27711   0.27835   0.28731
 Alpha virt. eigenvalues --    0.29009   0.29341   0.29615   0.30446   0.30978
 Alpha virt. eigenvalues --    0.31298   0.31790   0.32144   0.32390   0.32626
 Alpha virt. eigenvalues --    0.33205   0.33768   0.34069   0.34167   0.34329
 Alpha virt. eigenvalues --    0.34426   0.34632   0.34695   0.34838   0.34984
 Alpha virt. eigenvalues --    0.35222   0.35838   0.36171   0.36476   0.36985
 Alpha virt. eigenvalues --    0.37182   0.37610   0.38066   0.38466   0.39027
 Alpha virt. eigenvalues --    0.39279   0.39825   0.39927   0.40040   0.40140
 Alpha virt. eigenvalues --    0.40385   0.40785   0.41033   0.41302   0.41510
 Alpha virt. eigenvalues --    0.41640   0.41695   0.41923   0.42232   0.42405
 Alpha virt. eigenvalues --    0.42537   0.42936   0.43176   0.43790   0.43814
 Alpha virt. eigenvalues --    0.44095   0.44335   0.44474   0.44631   0.44865
 Alpha virt. eigenvalues --    0.45205   0.45219   0.45446   0.45780   0.45893
 Alpha virt. eigenvalues --    0.46142   0.46475   0.46612   0.46728   0.47120
 Alpha virt. eigenvalues --    0.47353   0.47474   0.47954   0.48039   0.48167
 Alpha virt. eigenvalues --    0.48328   0.48588   0.48709   0.48854   0.49622
 Alpha virt. eigenvalues --    0.49901   0.50201   0.50534   0.50790   0.51093
 Alpha virt. eigenvalues --    0.51361   0.51500   0.51603   0.51814   0.51964
 Alpha virt. eigenvalues --    0.52315   0.52616   0.52930   0.53119   0.54004
 Alpha virt. eigenvalues --    0.54141   0.54314   0.54644   0.54655   0.54868
 Alpha virt. eigenvalues --    0.54925   0.55249   0.55569   0.55931   0.56185
 Alpha virt. eigenvalues --    0.56608   0.57135   0.57412   0.57465   0.57771
 Alpha virt. eigenvalues --    0.58073   0.58347   0.58399   0.58653   0.59156
 Alpha virt. eigenvalues --    0.59383   0.59778   0.59930   0.60430   0.60653
 Alpha virt. eigenvalues --    0.60964   0.61026   0.61192   0.61407   0.61807
 Alpha virt. eigenvalues --    0.62032   0.62134   0.62350   0.62687   0.63030
 Alpha virt. eigenvalues --    0.63079   0.63268   0.63441   0.63668   0.63736
 Alpha virt. eigenvalues --    0.63945   0.64341   0.64415   0.64619   0.64851
 Alpha virt. eigenvalues --    0.64899   0.65005   0.65199   0.65296   0.65595
 Alpha virt. eigenvalues --    0.65794   0.66023   0.66210   0.66235   0.66590
 Alpha virt. eigenvalues --    0.66985   0.67132   0.67579   0.67606   0.67922
 Alpha virt. eigenvalues --    0.68034   0.68262   0.68367   0.68586   0.69198
 Alpha virt. eigenvalues --    0.69370   0.69912   0.70116   0.70727   0.71059
 Alpha virt. eigenvalues --    0.71111   0.71591   0.71946   0.71967   0.72411
 Alpha virt. eigenvalues --    0.72446   0.72780   0.73789   0.73940   0.74275
 Alpha virt. eigenvalues --    0.74811   0.75002   0.75141   0.75165   0.75645
 Alpha virt. eigenvalues --    0.75961   0.76641   0.77209   0.77974   0.78105
 Alpha virt. eigenvalues --    0.78314   0.78348   0.78614   0.79536   0.79621
 Alpha virt. eigenvalues --    0.80324   0.80643   0.81201   0.81497   0.81682
 Alpha virt. eigenvalues --    0.81990   0.82306   0.82691   0.82791   0.83122
 Alpha virt. eigenvalues --    0.83219   0.83457   0.83926   0.84020   0.84463
 Alpha virt. eigenvalues --    0.84630   0.84857   0.85649   0.85668   0.85879
 Alpha virt. eigenvalues --    0.86330   0.86471   0.86907   0.87041   0.87269
 Alpha virt. eigenvalues --    0.87996   0.88085   0.88477   0.88756   0.88950
 Alpha virt. eigenvalues --    0.89608   0.89832   0.90449   0.90673   0.90987
 Alpha virt. eigenvalues --    0.91290   0.91312   0.91437   0.91693   0.92106
 Alpha virt. eigenvalues --    0.92377   0.92421   0.92671   0.93019   0.93439
 Alpha virt. eigenvalues --    0.93556   0.93895   0.94082   0.94556   0.94710
 Alpha virt. eigenvalues --    0.95029   0.95418   0.95616   0.95965   0.96392
 Alpha virt. eigenvalues --    0.97263   0.98004   0.98071   0.98214   0.98475
 Alpha virt. eigenvalues --    0.99012   0.99575   0.99900   0.99975   1.00523
 Alpha virt. eigenvalues --    1.01242   1.01365   1.01890   1.02081   1.02388
 Alpha virt. eigenvalues --    1.03045   1.03338   1.03508   1.03877   1.04359
 Alpha virt. eigenvalues --    1.04400   1.04817   1.05222   1.05811   1.06203
 Alpha virt. eigenvalues --    1.06910   1.07351   1.07754   1.08284   1.08580
 Alpha virt. eigenvalues --    1.09408   1.09771   1.10079   1.10279   1.11025
 Alpha virt. eigenvalues --    1.11414   1.11996   1.12238   1.12476   1.13065
 Alpha virt. eigenvalues --    1.13368   1.13467   1.13817   1.14500   1.14759
 Alpha virt. eigenvalues --    1.14828   1.15101   1.15608   1.15959   1.16353
 Alpha virt. eigenvalues --    1.16860   1.17245   1.17443   1.18153   1.18273
 Alpha virt. eigenvalues --    1.18713   1.18953   1.19603   1.20670   1.21134
 Alpha virt. eigenvalues --    1.21484   1.22464   1.23157   1.23337   1.23801
 Alpha virt. eigenvalues --    1.24665   1.25486   1.25607   1.26159   1.27383
 Alpha virt. eigenvalues --    1.27678   1.28032   1.28716   1.28961   1.29205
 Alpha virt. eigenvalues --    1.29297   1.30083   1.30841   1.32051   1.32588
 Alpha virt. eigenvalues --    1.33334   1.34156   1.35256   1.36276   1.37310
 Alpha virt. eigenvalues --    1.37432   1.38565   1.39029   1.39388   1.39479
 Alpha virt. eigenvalues --    1.39979   1.40006   1.40253   1.40497   1.41533
 Alpha virt. eigenvalues --    1.42455   1.42767   1.43106   1.43512   1.43572
 Alpha virt. eigenvalues --    1.43932   1.45428   1.45812   1.46382   1.46806
 Alpha virt. eigenvalues --    1.47111   1.47362   1.47482   1.47584   1.47780
 Alpha virt. eigenvalues --    1.47805   1.48108   1.49177   1.49623   1.49843
 Alpha virt. eigenvalues --    1.49938   1.50001   1.50174   1.50318   1.50589
 Alpha virt. eigenvalues --    1.50959   1.51140   1.51351   1.51680   1.52153
 Alpha virt. eigenvalues --    1.52294   1.52732   1.53088   1.53965   1.54369
 Alpha virt. eigenvalues --    1.55029   1.55560   1.55945   1.56094   1.56766
 Alpha virt. eigenvalues --    1.57361   1.57733   1.57936   1.58179   1.58459
 Alpha virt. eigenvalues --    1.59024   1.59456   1.59746   1.59913   1.60077
 Alpha virt. eigenvalues --    1.60507   1.60643   1.60802   1.60911   1.61306
 Alpha virt. eigenvalues --    1.61589   1.61955   1.62292   1.62482   1.62627
 Alpha virt. eigenvalues --    1.62857   1.63048   1.63402   1.63458   1.63710
 Alpha virt. eigenvalues --    1.63850   1.64123   1.64281   1.64735   1.64884
 Alpha virt. eigenvalues --    1.65359   1.66429   1.66667   1.67321   1.67624
 Alpha virt. eigenvalues --    1.67858   1.68270   1.68529   1.68689   1.69222
 Alpha virt. eigenvalues --    1.69501   1.69631   1.69703   1.69925   1.70268
 Alpha virt. eigenvalues --    1.70472   1.70609   1.70856   1.71655   1.71773
 Alpha virt. eigenvalues --    1.72011   1.72191   1.72824   1.72978   1.73648
 Alpha virt. eigenvalues --    1.74145   1.75185   1.75772   1.75825   1.76030
 Alpha virt. eigenvalues --    1.76270   1.76456   1.76767   1.77176   1.77414
 Alpha virt. eigenvalues --    1.77581   1.78153   1.78277   1.79388   1.79827
 Alpha virt. eigenvalues --    1.80029   1.80266   1.80326   1.80645   1.80987
 Alpha virt. eigenvalues --    1.81291   1.81674   1.82211   1.83712   1.84102
 Alpha virt. eigenvalues --    1.85434   1.85593   1.86476   1.86675   1.87392
 Alpha virt. eigenvalues --    1.87879   1.88056   1.88330   1.89083   1.89585
 Alpha virt. eigenvalues --    1.89890   1.90395   1.90718   1.91486   1.91915
 Alpha virt. eigenvalues --    1.92340   1.92581   1.92750   1.92971   1.93241
 Alpha virt. eigenvalues --    1.93420   1.93821   1.94153   1.94366   1.94615
 Alpha virt. eigenvalues --    1.94831   1.95069   1.96053   1.96408   1.96600
 Alpha virt. eigenvalues --    1.96902   1.97195   1.98192   1.98256   1.98616
 Alpha virt. eigenvalues --    1.99073   1.99218   1.99638   2.00053   2.00357
 Alpha virt. eigenvalues --    2.01187   2.01797   2.02425   2.02914   2.03256
 Alpha virt. eigenvalues --    2.03376   2.03676   2.03859   2.03945   2.04493
 Alpha virt. eigenvalues --    2.04566   2.04982   2.05884   2.05919   2.06945
 Alpha virt. eigenvalues --    2.07477   2.07557   2.08204   2.08266   2.09086
 Alpha virt. eigenvalues --    2.09295   2.09431   2.09593   2.09701   2.09956
 Alpha virt. eigenvalues --    2.10708   2.10935   2.10996   2.11545   2.12070
 Alpha virt. eigenvalues --    2.12494   2.12751   2.13668   2.14056   2.14326
 Alpha virt. eigenvalues --    2.14521   2.14658   2.15369   2.15525   2.15782
 Alpha virt. eigenvalues --    2.16083   2.17637   2.18911   2.19314   2.20109
 Alpha virt. eigenvalues --    2.20520   2.21009   2.22900   2.23134   2.23815
 Alpha virt. eigenvalues --    2.24755   2.25597   2.26031   2.27034   2.27701
 Alpha virt. eigenvalues --    2.29071   2.29522   2.30325   2.30587   2.31053
 Alpha virt. eigenvalues --    2.31834   2.32865   2.33242   2.34813   2.35242
 Alpha virt. eigenvalues --    2.35545   2.36189   2.36456   2.36653   2.36852
 Alpha virt. eigenvalues --    2.37338   2.37451   2.38042   2.38341   2.39668
 Alpha virt. eigenvalues --    2.39976   2.40692   2.41197   2.41477   2.42001
 Alpha virt. eigenvalues --    2.42329   2.42569   2.43079   2.43330   2.43941
 Alpha virt. eigenvalues --    2.44924   2.45536   2.47985   2.48665   2.48943
 Alpha virt. eigenvalues --    2.49367   2.49551   2.50020   2.51047   2.52238
 Alpha virt. eigenvalues --    2.52715   2.52962   2.53451   2.53626   2.53685
 Alpha virt. eigenvalues --    2.54283   2.54900   2.55489   2.56038   2.56127
 Alpha virt. eigenvalues --    2.56637   2.57008   2.57075   2.57657   2.58157
 Alpha virt. eigenvalues --    2.59180   2.59272   2.60787   2.61003   2.61347
 Alpha virt. eigenvalues --    2.61715   2.61945   2.62321   2.62532   2.62868
 Alpha virt. eigenvalues --    2.63176   2.63453   2.63861   2.64381   2.64619
 Alpha virt. eigenvalues --    2.64882   2.65015   2.65269   2.65677   2.65931
 Alpha virt. eigenvalues --    2.66668   2.67368   2.67875   2.68142   2.68289
 Alpha virt. eigenvalues --    2.68583   2.68985   2.69291   2.69392   2.70131
 Alpha virt. eigenvalues --    2.70809   2.71055   2.71491   2.71651   2.71830
 Alpha virt. eigenvalues --    2.72322   2.72882   2.73532   2.74864   2.75844
 Alpha virt. eigenvalues --    2.75882   2.77103   2.77581   2.78911   2.79091
 Alpha virt. eigenvalues --    2.79458   2.80656   2.81198   2.81653   2.82730
 Alpha virt. eigenvalues --    2.83150   2.83578   2.84194   2.84547   2.85170
 Alpha virt. eigenvalues --    2.85419   2.86589   2.88045   2.88633   2.88976
 Alpha virt. eigenvalues --    2.89115   2.89286   2.89878   2.90101   2.90380
 Alpha virt. eigenvalues --    2.91449   2.92037   2.92249   2.92864   2.94394
 Alpha virt. eigenvalues --    2.94647   2.95199   2.95445   2.95528   2.95660
 Alpha virt. eigenvalues --    2.95920   2.96462   2.97151   2.97527   2.98005
 Alpha virt. eigenvalues --    2.98397   2.99318   3.00408   3.00801   3.01047
 Alpha virt. eigenvalues --    3.01387   3.02358   3.03354   3.04087   3.04474
 Alpha virt. eigenvalues --    3.04682   3.04780   3.05085   3.06309   3.06545
 Alpha virt. eigenvalues --    3.07659   3.08047   3.09723   3.10101   3.10240
 Alpha virt. eigenvalues --    3.10864   3.11188   3.12269   3.12979   3.13094
 Alpha virt. eigenvalues --    3.13672   3.14722   3.15383   3.15654   3.16322
 Alpha virt. eigenvalues --    3.16869   3.19873   3.20647   3.21724   3.22203
 Alpha virt. eigenvalues --    3.22486   3.23370   3.24129   3.24869   3.25345
 Alpha virt. eigenvalues --    3.25709   3.25811   3.26835   3.27822   3.29826
 Alpha virt. eigenvalues --    3.29971   3.30047   3.30396   3.31428   3.31998
 Alpha virt. eigenvalues --    3.34646   3.36461   3.37468   3.38614   3.39001
 Alpha virt. eigenvalues --    3.39591   3.40644   3.41242   3.41553   3.41683
 Alpha virt. eigenvalues --    3.42515   3.42943   3.43651   3.45734   3.45936
 Alpha virt. eigenvalues --    3.46642   3.47951   3.50361   3.50712   3.51630
 Alpha virt. eigenvalues --    3.53490   3.53745   3.54558   3.55128   3.56253
 Alpha virt. eigenvalues --    3.57756   3.59410   3.59739   3.60296   3.60518
 Alpha virt. eigenvalues --    3.61788   3.63837   3.64234   3.64243   3.65646
 Alpha virt. eigenvalues --    3.66660   3.72443   3.73355   3.78601   3.78793
 Alpha virt. eigenvalues --    3.78967   3.79180   3.79222   3.80901   3.82103
 Alpha virt. eigenvalues --    3.82368   3.82728   3.82855   3.83099   3.85308
 Alpha virt. eigenvalues --    3.85493   3.88980   3.90951   3.91488   3.95761
 Alpha virt. eigenvalues --    3.96441   3.97820   3.99957   4.00699   4.01080
 Alpha virt. eigenvalues --    4.01762   4.02123   4.06085   4.07387   4.08921
 Alpha virt. eigenvalues --    4.10005   4.10270   4.13661   4.14553   4.14876
 Alpha virt. eigenvalues --    4.14981   4.15461   4.16812   4.19782   4.20015
 Alpha virt. eigenvalues --    4.21760   4.22077   4.26092   4.27175   4.29735
 Alpha virt. eigenvalues --    4.33223   4.36367   4.52313   4.56079   4.58149
 Alpha virt. eigenvalues --    4.61047   4.69461   4.84636   4.85300   4.85494
 Alpha virt. eigenvalues --    4.95893   4.95949   5.01312   5.01484   5.03112
 Alpha virt. eigenvalues --    5.03181   5.09178   5.12402   5.17267   5.17729
 Alpha virt. eigenvalues --    5.32793   5.37603   5.37856   5.38035   5.63232
 Alpha virt. eigenvalues --    5.70822   5.84925   5.85341   5.85390   5.86165
 Alpha virt. eigenvalues --    7.92507   7.94345   7.96547   7.98801  17.35951
 Alpha virt. eigenvalues --   17.37317  17.39101  17.39929  17.59801  17.62864
 Alpha virt. eigenvalues --   17.63587  17.67190  17.68973  17.68999  17.72547
 Alpha virt. eigenvalues --   17.74219  23.42772  23.51957  23.56177  23.60525
 Alpha virt. eigenvalues --   23.63365  23.67472  23.73024  23.78398  23.81606
 Alpha virt. eigenvalues --   23.85603  23.86989  23.87801  23.89740  23.93231
 Alpha virt. eigenvalues --   23.93412  23.94056  23.94391  23.96518  23.97182
 Alpha virt. eigenvalues --   23.98583  23.98914  23.99292  24.00427  24.00566
 Alpha virt. eigenvalues --   24.04430  24.06785  24.08152  24.08598  24.09361
 Alpha virt. eigenvalues --   24.10570  24.11165  24.11214  24.17444  24.17629
 Alpha virt. eigenvalues --   24.17840  24.18211  24.18846  24.19439  24.20336
 Alpha virt. eigenvalues --   24.24254  24.24397  24.24661  24.50845  35.73662
 Alpha virt. eigenvalues --   35.91407  49.95246  49.97576  50.02371  50.02520
 Alpha virt. eigenvalues --   50.10424  50.11827 189.17260 189.19027 189.20973
 Alpha virt. eigenvalues --  189.23117
          Condensed to atoms (all electrons):
 Mulliken charges:
               1
     1  C   -0.320769
     2  C   -0.007549
     3  C   -0.196157
     4  C   -0.208538
     5  S    0.347346
     6  C   -0.317333
     7  C   -0.009812
     8  C   -0.112157
     9  C   -0.142477
    10  C    0.180468
    11  N   -0.545596
    12  C    0.033340
    13  C   -0.075822
    14  H    0.141033
    15  C   -0.159782
    16  C    0.174246
    17  C   -0.113884
    18  C   -0.083014
    19  H    0.148920
    20  H    0.143305
    21  O   -0.376116
    22  C   -0.209237
    23  H    0.138383
    24  H    0.138249
    25  H    0.156971
    26  H    0.144629
    27  C    0.032285
    28  C   -0.080308
    29  C   -0.157441
    30  C    0.174136
    31  C   -0.117614
    32  C   -0.078434
    33  H    0.143223
    34  H    0.142380
    35  O   -0.376295
    36  C   -0.208895
    37  H    0.138159
    38  H    0.137339
    39  H    0.156955
    40  H    0.144577
    41  H    0.146458
    42  C   -0.138350
    43  C   -0.067007
    44  H    0.131641
    45  H    0.152932
    46  H    0.154630
    47  H    0.144173
    48  C   -0.004880
    49  C    0.006466
    50  H    0.137712
    51  S    0.395370
    52  C   -0.271783
    53  C   -0.020757
    54  H    0.147993
    55  C   -0.180913
    56  S    0.377931
    57  C   -0.369192
    58  C   -0.074403
    59  C   -0.056581
    60  C    0.053200
    61  C   -0.416372
    62  S    0.430449
    63  C    0.517721
    64  O   -0.370639
    65  O   -0.366722
    66  C   -0.174896
    67  H    0.150373
    68  H    0.152425
    69  H    0.153575
    70  H    0.178943
    71  C    0.001371
    72  C   -0.196868
    73  C    0.086626
    74  N   -0.249301
    75  C    0.491228
    76  O   -0.344176
    77  H    0.261845
    78  O   -0.319016
    79  H    0.140027
    80  C   -0.301868
    81  H    0.157083
    82  H    0.143265
    83  H    0.145600
    84  C   -0.300393
    85  H    0.158046
    86  H    0.144896
    87  H    0.143426
 Sum of Mulliken charges =  -0.00000
 Mulliken charges with hydrogens summed into heavy atoms:
               1
     1  C   -0.320769
     2  C   -0.007549
     3  C   -0.196157
     4  C   -0.208538
     5  S    0.347346
     6  C   -0.317333
     7  C   -0.009812
     8  C    0.032015
     9  C    0.012153
    10  C    0.180468
    11  N   -0.545596
    12  C    0.033340
    13  C    0.065211
    15  C   -0.015153
    16  C    0.174246
    17  C    0.029421
    18  C    0.065906
    21  O   -0.376116
    22  C    0.224366
    27  C    0.032285
    28  C    0.066151
    29  C   -0.012865
    30  C    0.174136
    31  C    0.024765
    32  C    0.064789
    35  O   -0.376295
    36  C    0.223558
    42  C    0.014582
    43  C    0.064635
    48  C    0.132833
    49  C    0.006466
    51  S    0.395370
    52  C   -0.271783
    53  C    0.127236
    55  C   -0.180913
    56  S    0.377931
    57  C   -0.369192
    58  C   -0.074403
    59  C   -0.056581
    60  C    0.232144
    61  C   -0.416372
    62  S    0.430449
    63  C    0.517721
    64  O   -0.370639
    65  O   -0.366722
    66  C    0.281477
    71  C    0.141398
    72  C   -0.196868
    73  C    0.086626
    74  N   -0.249301
    75  C    0.491228
    76  O   -0.082331
    78  O   -0.319016
    80  C    0.144080
    84  C    0.145975
 Electronic spatial extent (au):  <R**2>=         100523.6980
 Charge=             -0.0000 electrons
 Dipole moment (field-independent basis, Debye):
    X=             14.9131    Y=             -3.0493    Z=              5.9525  Tot=             16.3442
 Quadrupole moment (field-independent basis, Debye-Ang):
   XX=           -443.4204   YY=           -300.1447   ZZ=           -350.1104
   XY=             -1.5907   XZ=            -24.9475   YZ=             -2.6020
 Traceless Quadrupole moment (field-independent basis, Debye-Ang):
   XX=            -78.8619   YY=             64.4138   ZZ=             14.4481
   XY=             -1.5907   XZ=            -24.9475   YZ=             -2.6020
 Octapole moment (field-independent basis, Debye-Ang**2):
  XXX=           2975.5937  YYY=            104.5528  ZZZ=             27.5199  XYY=            145.1749
  XXY=            268.7913  XXZ=            800.4161  XZZ=             82.0453  YZZ=             -0.7199
  YYZ=            103.4834  XYZ=            -57.0675
 Hexadecapole moment (field-independent basis, Debye-Ang**3):
 XXXX=        -144934.0654 YYYY=         -13105.5643 ZZZZ=          -1746.4629 XXXY=          -1921.8839
 XXXZ=          -4088.2607 YYYX=           -857.1024 YYYZ=            102.3084 ZZZX=           -141.4883
 ZZZY=              9.7725 XXYY=         -18556.4267 XXZZ=         -20422.9711 YYZZ=          -2687.4078
 XXYZ=           -317.3323 YYXZ=            184.4738 ZZXY=           -259.2564
 N-N= 7.134635100550D+03 E-N=-2.322102888795D+04  KE= 3.800561468654D+03
 1\1\GINC-CN111\SP\RM062X TD-FC\6-311G(d,p)\C43H32N2O6S4\R2532\11-Jun-2
 021\0\\#N TD(NStates=10) M062X/6-311G(d,p)\\Name\\0,1\C,0,0.937367,-3.
 073447,-0.186672\C,0,2.122867,-2.115248,-0.081661\C,0,1.679316,-0.8040
 99,0.068452\C,0,0.249325,-0.787165,0.077728\S,0,-1.03641,0.361025,0.21
 5518\C,0,-2.23886,-0.926149,0.055578\C,0,-3.663445,-0.618716,0.088081\
 C,0,-4.167072,0.639785,-0.284618\C,0,-5.523215,0.918205,-0.260048\C,0,
 -6.453643,-0.056471,0.14537\N,0,-7.828021,0.221147,0.178165\C,0,-8.300
 703,1.55297,0.385806\C,0,-9.254197,2.109715,-0.465769\H,0,-9.625209,1.
 528423,-1.30142\C,0,-9.745666,3.397532,-0.252908\C,0,-9.267005,4.15743
 1,0.817016\C,0,-8.304305,3.60531,1.672687\C,0,-7.836741,2.318757,1.466
 163\H,0,-7.103023,1.89706,2.142771\H,0,-7.950783,4.202556,2.504337\O,0
 ,-9.668305,5.425275,1.114274\C,0,-10.642233,6.03995,0.282435\H,0,-10.2
 85306,6.139026,-0.748855\H,0,-11.585682,5.482513,0.288556\H,0,-10.8080
 33,7.030888,0.701547\H,0,-10.488787,3.794368,-0.93121\C,0,-8.790537,-0
 .816003,-0.01459\C,0,-8.706892,-1.681719,-1.105345\C,0,-9.647255,-2.69
 4117,-1.294967\C,0,-10.70787,-2.83637,-0.396541\C,0,-10.805065,-1.9603
 04,0.692355\C,0,-9.855745,-0.970857,0.884487\H,0,-9.935782,-0.303465,1
 .734163\H,0,-11.631034,-2.085101,1.381938\O,0,-11.686719,-3.78038,-0.4
 89179\C,0,-11.645727,-4.694126,-1.575939\H,0,-11.722954,-4.177359,-2.5
 39191\H,0,-10.731032,-5.297522,-1.559834\H,0,-12.508032,-5.346312,-1.4
 48547\H,0,-9.548391,-3.348753,-2.150306\H,0,-7.894861,-1.569078,-1.813
 892\C,0,-5.957184,-1.318867,0.523743\C,0,-4.600126,-1.587169,0.494737\
 H,0,-4.253834,-2.557328,0.831925\H,0,-6.64587,-2.082701,0.860973\H,0,-
 5.873589,1.893646,-0.571326\H,0,-3.486389,1.408137,-0.634689\C,0,-1.62
 5489,-2.161053,-0.07841\C,0,-0.219718,-2.083396,-0.064821\H,0,-2.19196
 8,-3.072577,-0.2147\S,0,2.977646,0.322058,0.184968\C,0,4.162184,-0.988
 087,0.012416\C,0,3.51621,-2.21773,-0.113955\H,0,4.06458,-3.142153,-0.2
 44654\C,0,5.567054,-0.737299,0.045138\S,0,6.680862,-2.036515,0.376555\
 C,0,8.117241,-1.007346,0.249715\C,0,7.699721,0.298072,-0.013178\C,0,6.
 283611,0.455188,-0.144695\C,0,5.918293,1.776862,-0.543528\C,0,7.002029
 ,2.580666,-0.716207\S,0,8.542754,1.781825,-0.380001\C,0,6.929485,3.995
 445,-1.127359\O,0,5.9002,4.586493,-1.352715\O,0,8.156994,4.542399,-1.2
 21469\C,0,8.202058,5.929065,-1.604344\H,0,7.756993,6.064628,-2.59108\H
 ,0,7.661788,6.539691,-0.879736\H,0,9.25704,6.190991,-1.617581\H,0,4.91
 4608,2.135918,-0.716605\C,0,9.37614,-1.65344,0.354095\C,0,10.622163,-1
 .158916,0.653764\C,0,10.831709,0.144243,1.17759\N,0,10.995247,1.193976
 ,1.635252\C,0,11.834467,-2.036742,0.645164\O,0,11.763023,-3.147544,-0.
 146859\H,0,11.061204,-3.044195,-0.799445\O,0,12.816952,-1.818928,1.296
 115\H,0,9.33135,-2.730405,0.206037\C,0,0.917271,-3.80042,-1.548251\H,0
 ,0.924169,-3.086302,-2.374015\H,0,1.789433,-4.452223,-1.648799\H,0,0.0
 21019,-4.420217,-1.637464\C,0,0.930182,-4.093261,0.972236\H,0,0.947217
 ,-3.587426,1.939546\H,0,0.0336,-4.717316,0.926403\H,0,1.80217,-4.75015
 8,0.911574\\Version=ES64L-G16RevB.01\State=1-A\HF=-3811.0477254\RMSD=5
 .867e-09\PG=C01 [X(C43H32N2O6S4)]\\@


  DISAPPOINTMENT IS THE NURSE OF WISDOM.               
                              SIR BOYLE ROCHE                 
 Job cpu time:       0 days  6 hours 26 minutes 36.3 seconds.
 Elapsed time:       0 days  6 hours 27 minutes 45.8 seconds.
 File lengths (MBytes):  RWF=   8911 Int=      0 D2E=      0 Chk=    551 Scr=      1
 Normal termination of Gaussian 16 at Fri Jun 11 15:51:09 2021.
