 Entering Gaussian System, Link 0=/usr/local/apps//g09/g09
 Input=ES.com
 Output=ES.out
 Initial command:
 /usr/local/apps//g09/l1.exe "/tmp/bnp.467169.sequoia/Gau-27260.inp" -scrdir="/tmp/bnp.467169.sequoia/"
 Entering Link 1 = /usr/local/apps//g09/l1.exe PID=     27261.
  
 Copyright (c) 1988,1990,1992,1993,1995,1998,2003,2009,2013,
            Gaussian, Inc.  All Rights Reserved.
  
 This is part of the Gaussian(R) 09 program.  It is based on
 the Gaussian(R) 03 system (copyright 2003, Gaussian, Inc.),
 the Gaussian(R) 98 system (copyright 1998, Gaussian, Inc.),
 the Gaussian(R) 94 system (copyright 1995, Gaussian, Inc.),
 the Gaussian 92(TM) system (copyright 1992, Gaussian, Inc.),
 the Gaussian 90(TM) system (copyright 1990, Gaussian, Inc.),
 the Gaussian 88(TM) system (copyright 1988, Gaussian, Inc.),
 the Gaussian 86(TM) system (copyright 1986, Carnegie Mellon
 University), and the Gaussian 82(TM) system (copyright 1983,
 Carnegie Mellon University). Gaussian is a federally registered
 trademark of Gaussian, Inc.
  
 This software contains proprietary and confidential information,
 including trade secrets, belonging to Gaussian, Inc.
  
 This software is provided under written license and may be
 used, copied, transmitted, or stored only in accord with that
 written license.
  
 The following legend is applicable only to US Government
 contracts under FAR:
  
                    RESTRICTED RIGHTS LEGEND
  
 Use, reproduction and disclosure by the US Government is
 subject to restrictions as set forth in subparagraphs (a)
 and (c) of the Commercial Computer Software - Restricted
 Rights clause in FAR 52.227-19.
  
 Gaussian, Inc.
 340 Quinnipiac St., Bldg. 40, Wallingford CT 06492
  
  
 ---------------------------------------------------------------
 Warning -- This program may not be used in any manner that
 competes with the business of Gaussian, Inc. or will provide
 assistance to any competitor of Gaussian, Inc.  The licensee
 of this program is prohibited from giving any competitor of
 Gaussian, Inc. access to this program.  By using this program,
 the user acknowledges that Gaussian, Inc. is engaged in the
 business of creating and licensing software in the field of
 computational chemistry and represents and warrants to the
 licensee that it is not a competitor of Gaussian, Inc. and that
 it will not use this program in any manner prohibited above.
 ---------------------------------------------------------------
  

 Cite this work as:
 Gaussian 09, Revision D.01,
 M. J. Frisch, G. W. Trucks, H. B. Schlegel, G. E. Scuseria, 
 M. A. Robb, J. R. Cheeseman, G. Scalmani, V. Barone, B. Mennucci, 
 G. A. Petersson, H. Nakatsuji, M. Caricato, X. Li, H. P. Hratchian, 
 A. F. Izmaylov, J. Bloino, G. Zheng, J. L. Sonnenberg, M. Hada, 
 M. Ehara, K. Toyota, R. Fukuda, J. Hasegawa, M. Ishida, T. Nakajima, 
 Y. Honda, O. Kitao, H. Nakai, T. Vreven, J. A. Montgomery, Jr., 
 J. E. Peralta, F. Ogliaro, M. Bearpark, J. J. Heyd, E. Brothers, 
 K. N. Kudin, V. N. Staroverov, T. Keith, R. Kobayashi, J. Normand, 
 K. Raghavachari, A. Rendell, J. C. Burant, S. S. Iyengar, J. Tomasi, 
 M. Cossi, N. Rega, J. M. Millam, M. Klene, J. E. Knox, J. B. Cross, 
 V. Bakken, C. Adamo, J. Jaramillo, R. Gomperts, R. E. Stratmann, 
 O. Yazyev, A. J. Austin, R. Cammi, C. Pomelli, J. W. Ochterski, 
 R. L. Martin, K. Morokuma, V. G. Zakrzewski, G. A. Voth, 
 P. Salvador, J. J. Dannenberg, S. Dapprich, A. D. Daniels, 
 O. Farkas, J. B. Foresman, J. V. Ortiz, J. Cioslowski, 
 and D. J. Fox, Gaussian, Inc., Wallingford CT, 2013.
 
 ******************************************
 Gaussian 09:  ES64L-G09RevD.01 24-Apr-2013
                16-May-2021 
 ******************************************
 %mem=8gb
 -----------------------------------
 #N TD(NStates=10) B3lYP/6-311G(d,p)
 -----------------------------------
 1/38=1/1;
 2/12=2,17=6,18=5,40=1/2;
 3/5=4,6=6,7=101,11=9,16=1,25=1,30=1,74=-5/1,2,8,3;
 4//1;
 5/5=2,38=5/2;
 8/6=1,10=2,108=10/1;
 9/41=10,42=1,70=2/14;
 6/7=2,8=2,9=2,10=2/1;
 99/5=1,9=1/99;
 ----
 Name
 ----
 Symbolic Z-matrix:
 Charge =  0 Multiplicity = 1
 6                    -7.85487   6.02406  -0.40349 
 8                    -6.9301    5.44558   0.50729 
 6                    -6.55144   4.15151   0.3146 
 6                    -7.01308   3.3287   -0.71603 
 6                    -6.54892   2.01784  -0.81965 
 6                    -5.63931   1.50177   0.10224 
 7                    -5.1954    0.14668   0.00462 
 6                    -3.83143  -0.16641   0.01612 
 6                    -3.37685  -1.42332   0.46319 
 6                    -2.02874  -1.73047   0.4692 
 6                    -1.05804  -0.80801   0.0353 
 6                    -1.51945   0.44626  -0.40313 
 6                    -2.86594   0.76331  -0.41674 
 1                    -3.1827    1.73189  -0.78053 
 1                    -0.81097   1.17865  -0.77416 
 6                     0.35539  -1.15676   0.04023 
 16                    1.59829   0.07195   0.05968 
 6                     2.88992  -1.12803   0.04186 
 6                     2.33922  -2.39936   0.04197 
 6                     0.9337   -2.4134    0.03945 
 1                     0.35165  -3.32419   0.00432 
 1                     2.95258  -3.28684   0.02924 
 6                     4.27463  -0.72531   0.02782 
 6                     4.66333   0.61167  -0.04198 
 6                     5.99809   1.0487   -0.05879 
 6                     7.08187   0.17841  -0.0089 
 6                     6.74383  -1.21949   0.06787 
 6                     5.36506  -1.67348   0.0861 
 7                     5.25742  -3.00001   0.1624 
 16                    6.77499  -3.61312   0.20635 
 7                     7.62756  -2.21463   0.13189 
 6                     8.47963   0.52844  -0.0263 
 6                     9.11572   1.73216  -0.0983 
 6                     8.43282   2.9769   -0.21418 
 7                     7.85974   3.97801  -0.29075 
 6                     10.61293   1.84396  -0.16783 
 8                     11.17017   2.79436  -0.63991 
 8                     11.32641   0.79556   0.32049 
 1                     10.76477   0.21745   0.84941 
 1                     9.11986  -0.34882  -0.00524 
 1                     6.16939   2.11421  -0.11888 
 1                     3.89673   1.37542  -0.09279 
 1                    -1.71748  -2.69481   0.85323 
 1                    -4.09183  -2.15159   0.82293 
 6                    -6.18248  -0.88051  -0.10949 
 6                    -7.24314  -0.94913   0.79286 
 6                    -8.22611  -1.93116   0.67429 
 6                    -8.14618  -2.87624  -0.35165 
 6                    -7.08086  -2.8135   -1.25979 
 6                    -6.11918  -1.82388  -1.14572 
 1                    -5.30664  -1.77684  -1.86104 
 1                    -7.03922  -3.54581  -2.05684 
 8                    -9.0421   -3.88202  -0.55586 
 6                    -10.14042  -4.00272   0.33748 
 1                    -9.80465  -4.18371   1.36466 
 1                    -10.77721  -3.11122   0.31483 
 1                    -10.71257  -4.86124  -0.00985 
 1                    -9.03614  -1.95162   1.39075 
 1                    -7.30743  -0.2231    1.59455 
 6                    -5.19181   2.33078   1.14162 
 6                    -5.6331    3.63935   1.24094 
 1                    -5.29209   4.28604   2.04019 
 1                    -4.49192   1.94131   1.87145 
 1                    -6.90644   1.38699  -1.62476 
 1                    -7.72131   3.69391  -1.44742 
 1                    -8.0099    7.04544  -0.06037 
 1                    -7.45583   6.04221  -1.42376 
 1                    -8.81234   5.49115  -0.39674 
 
 Stoichiometry    C34H24N4O4S2
 Framework group  C1[X(C34H24N4O4S2)]
 Deg. of freedom   198
 Full point group                 C1      NOp   1
 Largest Abelian subgroup         C1      NOp   1
 Largest concise Abelian subgroup C1      NOp   1
                         Standard orientation:                         
 ---------------------------------------------------------------------
 Center     Atomic      Atomic             Coordinates (Angstroms)
 Number     Number       Type             X           Y           Z
 ---------------------------------------------------------------------
      1          6           0        7.854865    6.024058    0.403487
      2          8           0        6.930098    5.445576   -0.507285
      3          6           0        6.551439    4.151509   -0.314600
      4          6           0        7.013084    3.328698    0.716028
      5          6           0        6.548922    2.017843    0.819648
      6          6           0        5.639310    1.501770   -0.102244
      7          7           0        5.195402    0.146676   -0.004616
      8          6           0        3.831426   -0.166409   -0.016121
      9          6           0        3.376849   -1.423317   -0.463194
     10          6           0        2.028745   -1.730473   -0.469197
     11          6           0        1.058040   -0.808007   -0.035304
     12          6           0        1.519446    0.446258    0.403126
     13          6           0        2.865936    0.763307    0.416735
     14          1           0        3.182701    1.731893    0.780526
     15          1           0        0.810972    1.178648    0.774162
     16          6           0       -0.355386   -1.156756   -0.040233
     17         16           0       -1.598290    0.071945   -0.059677
     18          6           0       -2.889919   -1.128032   -0.041858
     19          6           0       -2.339225   -2.399356   -0.041965
     20          6           0       -0.933701   -2.413395   -0.039446
     21          1           0       -0.351646   -3.324188   -0.004324
     22          1           0       -2.952581   -3.286838   -0.029235
     23          6           0       -4.274635   -0.725308   -0.027824
     24          6           0       -4.663327    0.611667    0.041976
     25          6           0       -5.998093    1.048696    0.058794
     26          6           0       -7.081872    0.178411    0.008897
     27          6           0       -6.743828   -1.219490   -0.067869
     28          6           0       -5.365060   -1.673476   -0.086099
     29          7           0       -5.257420   -3.000011   -0.162402
     30         16           0       -6.774991   -3.613123   -0.206354
     31          7           0       -7.627557   -2.214635   -0.131885
     32          6           0       -8.479634    0.528438    0.026300
     33          6           0       -9.115721    1.732156    0.098297
     34          6           0       -8.432816    2.976899    0.214181
     35          7           0       -7.859740    3.978005    0.290750
     36          6           0      -10.612934    1.843960    0.167833
     37          8           0      -11.170170    2.794364    0.639908
     38          8           0      -11.326407    0.795559   -0.320491
     39          1           0      -10.764773    0.217454   -0.849414
     40          1           0       -9.119864   -0.348824    0.005237
     41          1           0       -6.169390    2.114206    0.118876
     42          1           0       -3.896732    1.375424    0.092792
     43          1           0        1.717481   -2.694805   -0.853227
     44          1           0        4.091832   -2.151590   -0.822929
     45          6           0        6.182485   -0.880510    0.109488
     46          6           0        7.243138   -0.949132   -0.792860
     47          6           0        8.226109   -1.931155   -0.674294
     48          6           0        8.146178   -2.876241    0.351647
     49          6           0        7.080856   -2.813495    1.259788
     50          6           0        6.119176   -1.823881    1.145719
     51          1           0        5.306643   -1.776838    1.861042
     52          1           0        7.039224   -3.545811    2.056842
     53          8           0        9.042096   -3.882022    0.555863
     54          6           0       10.140418   -4.002717   -0.337475
     55          1           0        9.804647   -4.183713   -1.364656
     56          1           0       10.777211   -3.111220   -0.314833
     57          1           0       10.712574   -4.861240    0.009852
     58          1           0        9.036138   -1.951624   -1.390748
     59          1           0        7.307425   -0.223104   -1.594546
     60          6           0        5.191810    2.330782   -1.141623
     61          6           0        5.633098    3.639345   -1.240941
     62          1           0        5.292087    4.286042   -2.040189
     63          1           0        4.491923    1.941314   -1.871452
     64          1           0        6.906439    1.386992    1.624756
     65          1           0        7.721313    3.693910    1.447422
     66          1           0        8.009898    7.045443    0.060366
     67          1           0        7.455829    6.042205    1.423759
     68          1           0        8.812336    5.491153    0.396740
 ---------------------------------------------------------------------
 Rotational constants (GHZ):      0.1203711      0.0186880      0.0163501
 Standard basis: 6-311G(d,p) (5D, 7F)
 There are   996 symmetry adapted cartesian basis functions of A   symmetry.
 There are   952 symmetry adapted basis functions of A   symmetry.
   952 basis functions,  1628 primitive gaussians,   996 cartesian basis functions
   160 alpha electrons      160 beta electrons
       nuclear repulsion energy      4738.9108146799 Hartrees.
 NAtoms=   68 NActive=   68 NUniq=   68 SFac= 1.00D+00 NAtFMM=   60 NAOKFM=T Big=T
 Integral buffers will be    131072 words long.
 Regular integral format.
 Two-electron integral symmetry is turned on.
 One-electron integrals computed using PRISM.
 NBasis=   952 RedAO= T EigKep=  1.21D-04  NBF=   952
 NBsUse=   952 1.00D-06 EigRej= -1.00D+00 NBFU=   952
 ExpMin= 7.71D-02 ExpMax= 9.34D+04 ExpMxC= 3.17D+03 IAcc=2 IRadAn=         4 AccDes= 0.00D+00
 Harris functional with IExCor=  402 and IRadAn=       4 diagonalized for initial guess.
 HarFok:  IExCor=  402 AccDes= 0.00D+00 IRadAn=         4 IDoV= 1 UseB2=F ITyADJ=14
 ICtDFT=  3500011 ScaDFX=  1.000000  1.000000  1.000000  1.000000
 FoFCou: FMM=F IPFlag=           0 FMFlag=      100000 FMFlg1=        2001
         NFxFlg=           0 DoJE=T BraDBF=F KetDBF=T FulRan=T
         wScrn=  0.000000 ICntrl=     500 IOpCl=  0 I1Cent=   200000004 NGrid=           0
         NMat0=    1 NMatS0=      1 NMatT0=    0 NMatD0=    1 NMtDS0=    0 NMtDT0=    0
 Petite list used in FoFCou.
 Requested convergence on RMS density matrix=1.00D-08 within 128 cycles.
 Requested convergence on MAX density matrix=1.00D-06.
 Requested convergence on             energy=1.00D-06.
 No special actions if energy rises.
 Integral accuracy reduced to 1.0D-05 until final iterations.
 EnCoef did     3 forward-backward iterations
 Initial convergence to 1.0D-05 achieved.  Increase integral accuracy.
 SCF Done:  E(RB3LYP) =  -2626.78545031     A.U. after   20 cycles
            NFock= 20  Conv=0.34D-08     -V/T= 2.0031
 DoSCS=F DFT=T ScalE2(SS,OS)=  1.000000  1.000000
 ExpMin= 7.71D-02 ExpMax= 9.34D+04 ExpMxC= 3.17D+03 IAcc=3 IRadAn=         5 AccDes= 0.00D+00
 HarFok:  IExCor=  205 AccDes= 0.00D+00 IRadAn=         5 IDoV=-2 UseB2=F ITyADJ=14
 ICtDFT= 12500011 ScaDFX=  1.000000  1.000000  1.000000  1.000000
 Range of M.O.s used for correlation:    53   952
 NBasis=   952 NAE=   160 NBE=   160 NFC=    52 NFV=     0
 NROrb=    900 NOA=   108 NOB=   108 NVA=   792 NVB=   792

 **** Warning!!: The largest alpha MO coefficient is  0.12309522D+02


 **** Warning!!: The smallest alpha delta epsilon is  0.65641867D-01

 Would need an additional        308090100000 words for in-memory AO integral storage.
 Orbital symmetries:
       Occupied  (A) (A) (A) (A) (A) (A) (A) (A) (A) (A) (A) (A)
                 (A) (A) (A) (A) (A) (A) (A) (A) (A) (A) (A) (A)
                 (A) (A) (A) (A) (A) (A) (A) (A) (A) (A) (A) (A)
                 (A) (A) (A) (A) (A) (A) (A) (A) (A) (A) (A) (A)
                 (A) (A) (A) (A) (A) (A) (A) (A) (A) (A) (A) (A)
                 (A) (A) (A) (A) (A) (A) (A) (A) (A) (A) (A) (A)
                 (A) (A) (A) (A) (A) (A) (A) (A) (A) (A) (A) (A)
                 (A) (A) (A) (A) (A) (A) (A) (A) (A) (A) (A) (A)
                 (A) (A) (A) (A) (A) (A) (A) (A) (A) (A) (A) (A)
                 (A) (A) (A) (A) (A) (A) (A) (A) (A) (A) (A) (A)
                 (A) (A) (A) (A) (A) (A) (A) (A) (A) (A) (A) (A)
                 (A) (A) (A) (A) (A) (A) (A) (A) (A) (A) (A) (A)
                 (A) (A) (A) (A) (A) (A) (A) (A) (A) (A) (A) (A)
                 (A) (A) (A) (A)
       Virtual   (A) (A) (A) (A) (A) (A) (A) (A) (A) (A) (A) (A)
                 (A) (A) (A) (A) (A) (A) (A) (A) (A) (A) (A) (A)
                 (A) (A) (A) (A) (A) (A) (A) (A) (A) (A) (A) (A)
                 (A) (A) (A) (A) (A) (A) (A) (A) (A) (A) (A) (A)
                 (A) (A) (A) (A) (A) (A) (A) (A) (A) (A) (A) (A)
                 (A) (A) (A) (A) (A) (A) (A) (A) (A) (A) (A) (A)
                 (A) (A) (A) (A) (A) (A) (A) (A) (A) (A) (A) (A)
                 (A) (A) (A) (A) (A) (A) (A) (A) (A) (A) (A) (A)
                 (A) (A) (A) (A) (A) (A) (A) (A) (A) (A) (A) (A)
                 (A) (A) (A) (A) (A) (A) (A) (A) (A) (A) (A) (A)
                 (A) (A) (A) (A) (A) (A) (A) (A) (A) (A) (A) (A)
                 (A) (A) (A) (A) (A) (A) (A) (A) (A) (A) (A) (A)
                 (A) (A) (A) (A) (A) (A) (A) (A) (A) (A) (A) (A)
                 (A) (A) (A) (A) (A) (A) (A) (A) (A) (A) (A) (A)
                 (A) (A) (A) (A) (A) (A) (A) (A) (A) (A) (A) (A)
                 (A) (A) (A) (A) (A) (A) (A) (A) (A) (A) (A) (A)
                 (A) (A) (A) (A) (A) (A) (A) (A) (A) (A) (A) (A)
                 (A) (A) (A) (A) (A) (A) (A) (A) (A) (A) (A) (A)
                 (A) (A) (A) (A) (A) (A) (A) (A) (A) (A) (A) (A)
                 (A) (A) (A) (A) (A) (A) (A) (A) (A) (A) (A) (A)
                 (A) (A) (A) (A) (A) (A) (A) (A) (A) (A) (A) (A)
                 (A) (A) (A) (A) (A) (A) (A) (A) (A) (A) (A) (A)
                 (A) (A) (A) (A) (A) (A) (A) (A) (A) (A) (A) (A)
                 (A) (A) (A) (A) (A) (A) (A) (A) (A) (A) (A) (A)
                 (A) (A) (A) (A) (A) (A) (A) (A) (A) (A) (A) (A)
                 (A) (A) (A) (A) (A) (A) (A) (A) (A) (A) (A) (A)
                 (A) (A) (A) (A) (A) (A) (A) (A) (A) (A) (A) (A)
                 (A) (A) (A) (A) (A) (A) (A) (A) (A) (A) (A) (A)
                 (A) (A) (A) (A) (A) (A) (A) (A) (A) (A) (A) (A)
                 (A) (A) (A) (A) (A) (A) (A) (A) (A) (A) (A) (A)
                 (A) (A) (A) (A) (A) (A) (A) (A) (A) (A) (A) (A)
                 (A) (A) (A) (A) (A) (A) (A) (A) (A) (A) (A) (A)
                 (A) (A) (A) (A) (A) (A) (A) (A) (A) (A) (A) (A)
                 (A) (A) (A) (A) (A) (A) (A) (A) (A) (A) (A) (A)
                 (A) (A) (A) (A) (A) (A) (A) (A) (A) (A) (A) (A)
                 (A) (A) (A) (A) (A) (A) (A) (A) (A) (A) (A) (A)
                 (A) (A) (A) (A) (A) (A) (A) (A) (A) (A) (A) (A)
                 (A) (A) (A) (A) (A) (A) (A) (A) (A) (A) (A) (A)
                 (A) (A) (A) (A) (A) (A) (A) (A) (A) (A) (A) (A)
                 (A) (A) (A) (A) (A) (A) (A) (A) (A) (A) (A) (A)
                 (A) (A) (A) (A) (A) (A) (A) (A) (A) (A) (A) (A)
                 (A) (A) (A) (A) (A) (A) (A) (A) (A) (A) (A) (A)
                 (A) (A) (A) (A) (A) (A) (A) (A) (A) (A) (A) (A)
                 (A) (A) (A) (A) (A) (A) (A) (A) (A) (A) (A) (A)
                 (A) (A) (A) (A) (A) (A) (A) (A) (A) (A) (A) (A)
                 (A) (A) (A) (A) (A) (A) (A) (A) (A) (A) (A) (A)
                 (A) (A) (A) (A) (A) (A) (A) (A) (A) (A) (A) (A)
                 (A) (A) (A) (A) (A) (A) (A) (A) (A) (A) (A) (A)
                 (A) (A) (A) (A) (A) (A) (A) (A) (A) (A) (A) (A)
                 (A) (A) (A) (A) (A) (A) (A) (A) (A) (A) (A) (A)
                 (A) (A) (A) (A) (A) (A) (A) (A) (A) (A) (A) (A)
                 (A) (A) (A) (A) (A) (A) (A) (A) (A) (A) (A) (A)
                 (A) (A) (A) (A) (A) (A) (A) (A) (A) (A) (A) (A)
                 (A) (A) (A) (A) (A) (A) (A) (A) (A) (A) (A) (A)
                 (A) (A) (A) (A) (A) (A) (A) (A) (A) (A) (A) (A)
                 (A) (A) (A) (A) (A) (A) (A) (A) (A) (A) (A) (A)
                 (A) (A) (A) (A) (A) (A) (A) (A) (A) (A) (A) (A)
                 (A) (A) (A) (A) (A) (A) (A) (A) (A) (A) (A) (A)
                 (A) (A) (A) (A) (A) (A) (A) (A) (A) (A) (A) (A)
                 (A) (A) (A) (A) (A) (A) (A) (A) (A) (A) (A) (A)
                 (A) (A) (A) (A) (A) (A) (A) (A) (A) (A) (A) (A)
                 (A) (A) (A) (A) (A) (A) (A) (A) (A) (A) (A) (A)
                 (A) (A) (A) (A) (A) (A) (A) (A) (A) (A) (A) (A)
                 (A) (A) (A) (A) (A) (A) (A) (A) (A) (A) (A) (A)
                 (A) (A) (A) (A) (A) (A) (A) (A) (A) (A) (A) (A)
                 (A) (A) (A) (A) (A) (A) (A) (A) (A) (A) (A) (A)
    40 initial guesses have been made.
 Convergence on wavefunction:    0.001000000000000
 Iteration     1 Dimension    40 NMult     0 NNew     40
 CISAX will form    40 AO SS matrices at one time.
 New state      6 was old state      7
 New state      7 was old state      8
 New state      8 was old state     10
 New state     10 was old state     14
 Iteration     2 Dimension    60 NMult    40 NNew     20
 Iteration     3 Dimension    80 NMult    60 NNew     20
 No map to state     10
 Iteration     4 Dimension   100 NMult    80 NNew     20
 Iteration     5 Dimension   118 NMult   100 NNew     18
 Iteration     6 Dimension   128 NMult   118 NNew     10
 Iteration     7 Dimension   130 NMult   128 NNew      2
 ***********************************************************************
 Excited states from <AA,BB:AA,BB> singles matrix:
 ***********************************************************************
 
 Ground to excited state transition densities written to RWF  633
 Ground to excited state transition electric dipole moments (Au):
       state          X           Y           Z        Dip. S.      Osc.
         1         3.9316     -0.0902     -0.0111     15.4654      0.6136
         2        -2.2327      0.6069      0.0355      5.3547      0.3157
         3         2.1962     -0.5009     -0.0326      5.0755      0.3365
         4         0.0447      0.2372     -0.0066      0.0583      0.0043
         5         1.4636     -0.1165     -0.0150      2.1560      0.1649
         6         1.8446      0.6115      0.0354      3.7779      0.3008
         7         0.5282     -0.0715     -0.0133      0.2843      0.0235
         8        -0.7185      0.9239      0.1472      1.3916      0.1193
         9         0.1877     -0.4534      0.2620      0.3094      0.0267
        10        -0.1750      0.1070      0.2591      0.1092      0.0096
 Ground to excited state transition velocity dipole moments (Au):
       state          X           Y           Z        Dip. S.      Osc.
         1        -0.2313      0.0042      0.0003      0.0535      0.5995
         2         0.2004     -0.0516     -0.0031      0.0429      0.3231
         3        -0.2132      0.0520      0.0033      0.0482      0.3230
         4        -0.0055     -0.0248      0.0007      0.0006      0.0039
         5        -0.1695      0.0141      0.0024      0.0290      0.1682
         6        -0.2158     -0.0728     -0.0046      0.0519      0.2895
         7        -0.0638      0.0119      0.0015      0.0042      0.0226
         8         0.0890     -0.1193     -0.0221      0.0227      0.1174
         9        -0.0217      0.0554     -0.0424      0.0053      0.0274
        10         0.0226     -0.0163     -0.0405      0.0024      0.0122
 Ground to excited state transition magnetic dipole moments (Au):
       state          X           Y           Z
         1        -0.0271      0.0304     -0.7401
         2        -0.0072     -0.0440      0.8804
         3        -0.0198      0.0571     -1.2177
         4        -0.0048     -0.0064     -0.3468
         5        -0.0842      0.0159     -0.8420
         6        -0.0805      0.0093     -0.3833
         7         0.0014      0.0209     -0.6629
         8        -0.0434      0.1065      1.5212
         9        -0.0106      0.5665      0.4563
        10        -0.0492      0.5341      0.4136
 Ground to excited state transition velocity quadrupole moments (Au):
       state          XX          YY          ZZ          XY          XZ          YZ
         1         1.0117     -0.0445     -0.0252     -0.1951     -0.0181      0.0237
         2        -3.1550     -0.1560      0.0122      0.5138      0.0329     -0.0111
         3         1.8885     -0.0494     -0.0195     -0.9142     -0.0626      0.0176
         4         0.2948     -0.0983     -0.0021     -0.5014     -0.0179     -0.0037
         5        -0.1023     -0.2140     -0.0299     -0.5613     -0.0523      0.0252
         6        -2.8006     -0.3287     -0.0367      0.4164      0.0173      0.0284
         7         0.5993      0.0553     -0.0170     -0.3053     -0.0430      0.0014
         8        -4.4989     -0.2731     -0.0103      1.5373     -0.0762     -0.0101
         9         2.0084      0.1533      0.0103     -0.5429     -0.5233     -0.0174
        10        -0.3239      0.0404     -0.0041      0.1202     -0.3926     -0.0118
 <0|del|b> * <b|rxdel|0> + <0|del|b> * <b|delr+rdel|0>
 Rotatory Strengths (R) in cgs (10**-40 erg-esu-cm/Gauss)
       state          XX          YY          ZZ    R(velocity)    E-M Angle
         1        -0.4387      3.7758     70.0614     24.4662       87.94
         2        -1.5154    -19.1994      5.4296     -5.0951       90.60
         3        -2.9856     -1.8971     27.2773      7.4649       89.33
         4        -2.8227      0.4990      1.9381     -0.1285       90.00
         5        -7.3047     28.7614     55.5752     25.6773       85.02
         6         1.2669     44.1132     63.8215     36.4005       78.07
         7        -1.9005     -2.0018     -0.7580     -1.5534       91.09
         8      -245.4765    -12.1218    -18.0873    -91.8952      102.61
         9       174.7246   -113.8507      6.1142     22.3294       76.64
        10       -98.1978    -35.4702     -8.4300    -47.3660      142.90
 1/2[<0|r|b>*<b|rxdel|0> + (<0|rxdel|b>*<b|r|0>)*]
 Rotatory Strengths (R) in cgs (10**-40 erg-esu-cm/Gauss)
       state          XX          YY          ZZ     R(length)
         1        75.3573      1.9399     -5.7910     23.8354
         2       -11.3124     18.8791    -22.1174     -4.8502
         3        30.6975     20.2129    -28.0461      7.6214
         4         0.1522      1.0810     -1.6282     -0.1317
         5        87.1496      1.3092     -8.9078     26.5170
         6       104.9741     -4.0276      9.5954     36.8473
         7        -0.5169      1.0567     -6.2216     -1.8939
         8       -22.0587    -69.6085   -158.3681    -83.3451
         9         1.4055    181.6211    -84.5458     32.8269
        10        -6.0939    -40.4247    -75.7828    -40.7671
  1/2[<0|del|b>*<b|r|0> + (<0|r|b>*<b|del|0>)*] (Au)
       state          X           Y           Z        Dip. S.   Osc.(frdel)
         1        -0.9094     -0.0004      0.0000      0.9097      0.6065
         2        -0.4475     -0.0313     -0.0001      0.4790      0.3193
         3        -0.4683     -0.0260     -0.0001      0.4945      0.3297
         4        -0.0002     -0.0059      0.0000      0.0061      0.0041
         5        -0.2482     -0.0016      0.0000      0.2498      0.1666
         6        -0.3980     -0.0445     -0.0002      0.4427      0.2951
         7        -0.0337     -0.0009      0.0000      0.0346      0.0230
         8        -0.0639     -0.1103     -0.0032      0.1775      0.1183
         9        -0.0041     -0.0251     -0.0111      0.0403      0.0269
        10        -0.0040     -0.0017     -0.0105      0.0162      0.0108

 Excitation energies and oscillator strengths:
 
 Excited State   1:      Singlet-A      1.6195 eV  765.58 nm  f=0.6136  <S**2>=0.000
     160 ->161         0.70707
 This state for optimization and/or second-order correction.
 Total Energy, E(TD-HF/TD-KS) =  -2626.72593537    
 Copying the excited state density for this state as the 1-particle RhoCI density.
 
 Excited State   2:      Singlet-A      2.4063 eV  515.25 nm  f=0.3157  <S**2>=0.000
     159 ->161         0.67719
     160 ->162         0.16149
 
 Excited State   3:      Singlet-A      2.7062 eV  458.15 nm  f=0.3365  <S**2>=0.000
     159 ->161        -0.15940
     160 ->162         0.67636
 
 Excited State   4:      Singlet-A      3.0280 eV  409.47 nm  f=0.0043  <S**2>=0.000
     158 ->161         0.70454
 
 Excited State   5:      Singlet-A      3.1227 eV  397.04 nm  f=0.1649  <S**2>=0.000
     157 ->161         0.58118
     160 ->163         0.38135
 
 Excited State   6:      Singlet-A      3.2505 eV  381.44 nm  f=0.3008  <S**2>=0.000
     156 ->161        -0.11715
     157 ->161        -0.31507
     159 ->162        -0.25434
     160 ->162        -0.10726
     160 ->163         0.53674
 
 Excited State   7:      Singlet-A      3.3790 eV  366.92 nm  f=0.0235  <S**2>=0.000
     154 ->161         0.34417
     155 ->161         0.15283
     156 ->161         0.51720
     159 ->162        -0.27622
 
 Excited State   8:      Singlet-A      3.5000 eV  354.24 nm  f=0.1193  <S**2>=0.000
     156 ->161         0.27261
     157 ->161        -0.19709
     159 ->162         0.52747
     160 ->163         0.18743
     160 ->164         0.20471
 
 Excited State   9:      Singlet-A      3.5278 eV  351.45 nm  f=0.0267  <S**2>=0.000
     154 ->161        -0.24589
     155 ->161        -0.21481
     159 ->162        -0.19999
     160 ->164         0.55215
 
 Excited State  10:      Singlet-A      3.5944 eV  344.94 nm  f=0.0096  <S**2>=0.000
     153 ->161         0.17147
     154 ->161         0.35923
     155 ->161         0.27791
     156 ->161        -0.34375
     160 ->164         0.37117
 SavETr:  write IOETrn=   770 NScale= 10 NData=  16 NLR=1 NState=   10 LETran=     190.

 **********************************************************************

            Population analysis using the SCF density.

 **********************************************************************

 Orbital symmetries:
       Occupied  (A) (A) (A) (A) (A) (A) (A) (A) (A) (A) (A) (A)
                 (A) (A) (A) (A) (A) (A) (A) (A) (A) (A) (A) (A)
                 (A) (A) (A) (A) (A) (A) (A) (A) (A) (A) (A) (A)
                 (A) (A) (A) (A) (A) (A) (A) (A) (A) (A) (A) (A)
                 (A) (A) (A) (A) (A) (A) (A) (A) (A) (A) (A) (A)
                 (A) (A) (A) (A) (A) (A) (A) (A) (A) (A) (A) (A)
                 (A) (A) (A) (A) (A) (A) (A) (A) (A) (A) (A) (A)
                 (A) (A) (A) (A) (A) (A) (A) (A) (A) (A) (A) (A)
                 (A) (A) (A) (A) (A) (A) (A) (A) (A) (A) (A) (A)
                 (A) (A) (A) (A) (A) (A) (A) (A) (A) (A) (A) (A)
                 (A) (A) (A) (A) (A) (A) (A) (A) (A) (A) (A) (A)
                 (A) (A) (A) (A) (A) (A) (A) (A) (A) (A) (A) (A)
                 (A) (A) (A) (A) (A) (A) (A) (A) (A) (A) (A) (A)
                 (A) (A) (A) (A)
       Virtual   (A) (A) (A) (A) (A) (A) (A) (A) (A) (A) (A) (A)
                 (A) (A) (A) (A) (A) (A) (A) (A) (A) (A) (A) (A)
                 (A) (A) (A) (A) (A) (A) (A) (A) (A) (A) (A) (A)
                 (A) (A) (A) (A) (A) (A) (A) (A) (A) (A) (A) (A)
                 (A) (A) (A) (A) (A) (A) (A) (A) (A) (A) (A) (A)
                 (A) (A) (A) (A) (A) (A) (A) (A) (A) (A) (A) (A)
                 (A) (A) (A) (A) (A) (A) (A) (A) (A) (A) (A) (A)
                 (A) (A) (A) (A) (A) (A) (A) (A) (A) (A) (A) (A)
                 (A) (A) (A) (A) (A) (A) (A) (A) (A) (A) (A) (A)
                 (A) (A) (A) (A) (A) (A) (A) (A) (A) (A) (A) (A)
                 (A) (A) (A) (A) (A) (A) (A) (A) (A) (A) (A) (A)
                 (A) (A) (A) (A) (A) (A) (A) (A) (A) (A) (A) (A)
                 (A) (A) (A) (A) (A) (A) (A) (A) (A) (A) (A) (A)
                 (A) (A) (A) (A) (A) (A) (A) (A) (A) (A) (A) (A)
                 (A) (A) (A) (A) (A) (A) (A) (A) (A) (A) (A) (A)
                 (A) (A) (A) (A) (A) (A) (A) (A) (A) (A) (A) (A)
                 (A) (A) (A) (A) (A) (A) (A) (A) (A) (A) (A) (A)
                 (A) (A) (A) (A) (A) (A) (A) (A) (A) (A) (A) (A)
                 (A) (A) (A) (A) (A) (A) (A) (A) (A) (A) (A) (A)
                 (A) (A) (A) (A) (A) (A) (A) (A) (A) (A) (A) (A)
                 (A) (A) (A) (A) (A) (A) (A) (A) (A) (A) (A) (A)
                 (A) (A) (A) (A) (A) (A) (A) (A) (A) (A) (A) (A)
                 (A) (A) (A) (A) (A) (A) (A) (A) (A) (A) (A) (A)
                 (A) (A) (A) (A) (A) (A) (A) (A) (A) (A) (A) (A)
                 (A) (A) (A) (A) (A) (A) (A) (A) (A) (A) (A) (A)
                 (A) (A) (A) (A) (A) (A) (A) (A) (A) (A) (A) (A)
                 (A) (A) (A) (A) (A) (A) (A) (A) (A) (A) (A) (A)
                 (A) (A) (A) (A) (A) (A) (A) (A) (A) (A) (A) (A)
                 (A) (A) (A) (A) (A) (A) (A) (A) (A) (A) (A) (A)
                 (A) (A) (A) (A) (A) (A) (A) (A) (A) (A) (A) (A)
                 (A) (A) (A) (A) (A) (A) (A) (A) (A) (A) (A) (A)
                 (A) (A) (A) (A) (A) (A) (A) (A) (A) (A) (A) (A)
                 (A) (A) (A) (A) (A) (A) (A) (A) (A) (A) (A) (A)
                 (A) (A) (A) (A) (A) (A) (A) (A) (A) (A) (A) (A)
                 (A) (A) (A) (A) (A) (A) (A) (A) (A) (A) (A) (A)
                 (A) (A) (A) (A) (A) (A) (A) (A) (A) (A) (A) (A)
                 (A) (A) (A) (A) (A) (A) (A) (A) (A) (A) (A) (A)
                 (A) (A) (A) (A) (A) (A) (A) (A) (A) (A) (A) (A)
                 (A) (A) (A) (A) (A) (A) (A) (A) (A) (A) (A) (A)
                 (A) (A) (A) (A) (A) (A) (A) (A) (A) (A) (A) (A)
                 (A) (A) (A) (A) (A) (A) (A) (A) (A) (A) (A) (A)
                 (A) (A) (A) (A) (A) (A) (A) (A) (A) (A) (A) (A)
                 (A) (A) (A) (A) (A) (A) (A) (A) (A) (A) (A) (A)
                 (A) (A) (A) (A) (A) (A) (A) (A) (A) (A) (A) (A)
                 (A) (A) (A) (A) (A) (A) (A) (A) (A) (A) (A) (A)
                 (A) (A) (A) (A) (A) (A) (A) (A) (A) (A) (A) (A)
                 (A) (A) (A) (A) (A) (A) (A) (A) (A) (A) (A) (A)
                 (A) (A) (A) (A) (A) (A) (A) (A) (A) (A) (A) (A)
                 (A) (A) (A) (A) (A) (A) (A) (A) (A) (A) (A) (A)
                 (A) (A) (A) (A) (A) (A) (A) (A) (A) (A) (A) (A)
                 (A) (A) (A) (A) (A) (A) (A) (A) (A) (A) (A) (A)
                 (A) (A) (A) (A) (A) (A) (A) (A) (A) (A) (A) (A)
                 (A) (A) (A) (A) (A) (A) (A) (A) (A) (A) (A) (A)
                 (A) (A) (A) (A) (A) (A) (A) (A) (A) (A) (A) (A)
                 (A) (A) (A) (A) (A) (A) (A) (A) (A) (A) (A) (A)
                 (A) (A) (A) (A) (A) (A) (A) (A) (A) (A) (A) (A)
                 (A) (A) (A) (A) (A) (A) (A) (A) (A) (A) (A) (A)
                 (A) (A) (A) (A) (A) (A) (A) (A) (A) (A) (A) (A)
                 (A) (A) (A) (A) (A) (A) (A) (A) (A) (A) (A) (A)
                 (A) (A) (A) (A) (A) (A) (A) (A) (A) (A) (A) (A)
                 (A) (A) (A) (A) (A) (A) (A) (A) (A) (A) (A) (A)
                 (A) (A) (A) (A) (A) (A) (A) (A) (A) (A) (A) (A)
                 (A) (A) (A) (A) (A) (A) (A) (A) (A) (A) (A) (A)
                 (A) (A) (A) (A) (A) (A) (A) (A) (A) (A) (A) (A)
                 (A) (A) (A) (A) (A) (A) (A) (A) (A) (A) (A) (A)
                 (A) (A) (A) (A) (A) (A) (A) (A) (A) (A) (A) (A)
 The electronic state is 1-A.
 Alpha  occ. eigenvalues --  -88.95428 -88.88710 -19.16871 -19.16227 -19.16140
 Alpha  occ. eigenvalues --  -19.10684 -14.36673 -14.36477 -14.35726 -14.31299
 Alpha  occ. eigenvalues --  -10.31234 -10.25064 -10.24919 -10.24649 -10.24577
 Alpha  occ. eigenvalues --  -10.23706 -10.23606 -10.23344 -10.23310 -10.23240
 Alpha  occ. eigenvalues --  -10.22955 -10.22906 -10.22448 -10.22182 -10.22131
 Alpha  occ. eigenvalues --  -10.21757 -10.21248 -10.20967 -10.20404 -10.19896
 Alpha  occ. eigenvalues --  -10.19189 -10.19060 -10.19017 -10.18918 -10.18887
 Alpha  occ. eigenvalues --  -10.18860 -10.18825 -10.18814 -10.18733 -10.18662
 Alpha  occ. eigenvalues --  -10.18395 -10.18352 -10.18326 -10.18316  -8.03686
 Alpha  occ. eigenvalues --   -7.97372  -6.00101  -5.99521  -5.99287  -5.93674
 Alpha  occ. eigenvalues --   -5.93302  -5.92939  -1.10947  -1.08106  -1.08022
 Alpha  occ. eigenvalues --   -1.04434  -1.02982  -0.98126  -0.92012  -0.91594
 Alpha  occ. eigenvalues --   -0.90735  -0.88743  -0.87302  -0.87268  -0.85514
 Alpha  occ. eigenvalues --   -0.84218  -0.80255  -0.78747  -0.78263  -0.77973
 Alpha  occ. eigenvalues --   -0.76928  -0.76795  -0.76406  -0.75369  -0.74841
 Alpha  occ. eigenvalues --   -0.73146  -0.71517  -0.70336  -0.68695  -0.66442
 Alpha  occ. eigenvalues --   -0.64597  -0.64345  -0.63810  -0.63146  -0.62951
 Alpha  occ. eigenvalues --   -0.62729  -0.61503  -0.60855  -0.59087  -0.58199
 Alpha  occ. eigenvalues --   -0.57027  -0.56520  -0.55670  -0.55622  -0.54457
 Alpha  occ. eigenvalues --   -0.53563  -0.52907  -0.52821  -0.51578  -0.50881
 Alpha  occ. eigenvalues --   -0.50379  -0.49559  -0.48424  -0.48330  -0.47749
 Alpha  occ. eigenvalues --   -0.47689  -0.47192  -0.46530  -0.46343  -0.46319
 Alpha  occ. eigenvalues --   -0.46072  -0.45138  -0.44776  -0.44436  -0.44165
 Alpha  occ. eigenvalues --   -0.44001  -0.43830  -0.43535  -0.42993  -0.42507
 Alpha  occ. eigenvalues --   -0.42273  -0.41342  -0.40666  -0.40520  -0.40367
 Alpha  occ. eigenvalues --   -0.40080  -0.39887  -0.39700  -0.39676  -0.39573
 Alpha  occ. eigenvalues --   -0.39067  -0.38717  -0.38307  -0.37580  -0.37200
 Alpha  occ. eigenvalues --   -0.36751  -0.36658  -0.36174  -0.35168  -0.34806
 Alpha  occ. eigenvalues --   -0.34419  -0.34296  -0.34211  -0.34154  -0.33506
 Alpha  occ. eigenvalues --   -0.32679  -0.32137  -0.31977  -0.30895  -0.28894
 Alpha  occ. eigenvalues --   -0.28621  -0.28035  -0.27785  -0.27179  -0.27127
 Alpha  occ. eigenvalues --   -0.26785  -0.25287  -0.24564  -0.22258  -0.19119
 Alpha virt. eigenvalues --   -0.12555  -0.08145  -0.06079  -0.03810  -0.02173
 Alpha virt. eigenvalues --   -0.02081  -0.01773  -0.01545  -0.01402  -0.00852
 Alpha virt. eigenvalues --    0.00741   0.01207   0.01519   0.01985   0.03063
 Alpha virt. eigenvalues --    0.03294   0.03617   0.03760   0.03944   0.04249
 Alpha virt. eigenvalues --    0.04997   0.05717   0.06187   0.06346   0.06773
 Alpha virt. eigenvalues --    0.07171   0.07413   0.08216   0.09251   0.09414
 Alpha virt. eigenvalues --    0.09639   0.09793   0.10018   0.10127   0.10248
 Alpha virt. eigenvalues --    0.10574   0.11134   0.11913   0.12161   0.12642
 Alpha virt. eigenvalues --    0.12923   0.13096   0.13298   0.13384   0.13912
 Alpha virt. eigenvalues --    0.14161   0.15004   0.15290   0.15606   0.15984
 Alpha virt. eigenvalues --    0.16396   0.16737   0.17826   0.18292   0.18478
 Alpha virt. eigenvalues --    0.19701   0.20133   0.20345   0.20478   0.20907
 Alpha virt. eigenvalues --    0.21873   0.22355   0.22682   0.22926   0.23414
 Alpha virt. eigenvalues --    0.23728   0.24804   0.25012   0.25414   0.26486
 Alpha virt. eigenvalues --    0.27207   0.27574   0.28169   0.28530   0.29186
 Alpha virt. eigenvalues --    0.29653   0.29770   0.29936   0.30374   0.30392
 Alpha virt. eigenvalues --    0.30493   0.30983   0.31078   0.31691   0.32142
 Alpha virt. eigenvalues --    0.32215   0.33314   0.33404   0.34092   0.35000
 Alpha virt. eigenvalues --    0.35218   0.35467   0.35631   0.35981   0.36194
 Alpha virt. eigenvalues --    0.36343   0.36834   0.37117   0.37294   0.37476
 Alpha virt. eigenvalues --    0.37849   0.38001   0.38166   0.38463   0.38523
 Alpha virt. eigenvalues --    0.39017   0.39126   0.39404   0.39621   0.39987
 Alpha virt. eigenvalues --    0.39991   0.40461   0.40520   0.40617   0.40879
 Alpha virt. eigenvalues --    0.41041   0.41159   0.41607   0.42412   0.42685
 Alpha virt. eigenvalues --    0.42768   0.43072   0.43198   0.43233   0.43913
 Alpha virt. eigenvalues --    0.44050   0.44311   0.44697   0.45353   0.45581
 Alpha virt. eigenvalues --    0.45989   0.46444   0.46702   0.47132   0.47306
 Alpha virt. eigenvalues --    0.47474   0.47749   0.48142   0.48508   0.48790
 Alpha virt. eigenvalues --    0.48981   0.49594   0.49967   0.50200   0.50575
 Alpha virt. eigenvalues --    0.51135   0.51201   0.51490   0.51707   0.52422
 Alpha virt. eigenvalues --    0.52777   0.53406   0.53563   0.53829   0.54074
 Alpha virt. eigenvalues --    0.54414   0.54846   0.55639   0.55775   0.55982
 Alpha virt. eigenvalues --    0.56185   0.56772   0.56925   0.57575   0.57661
 Alpha virt. eigenvalues --    0.57770   0.58408   0.58527   0.58622   0.58900
 Alpha virt. eigenvalues --    0.59193   0.59559   0.60169   0.60328   0.60650
 Alpha virt. eigenvalues --    0.60712   0.61070   0.61268   0.61463   0.61591
 Alpha virt. eigenvalues --    0.61904   0.62522   0.63097   0.63423   0.63614
 Alpha virt. eigenvalues --    0.63676   0.64168   0.64429   0.64485   0.65279
 Alpha virt. eigenvalues --    0.65611   0.65889   0.66110   0.66467   0.66767
 Alpha virt. eigenvalues --    0.66924   0.67729   0.68226   0.68437   0.68569
 Alpha virt. eigenvalues --    0.68874   0.69526   0.69875   0.70149   0.70437
 Alpha virt. eigenvalues --    0.71028   0.71923   0.72394   0.73212   0.73752
 Alpha virt. eigenvalues --    0.74399   0.75129   0.75763   0.76208   0.76755
 Alpha virt. eigenvalues --    0.77503   0.77699   0.77798   0.78200   0.78250
 Alpha virt. eigenvalues --    0.78504   0.78702   0.79039   0.79381   0.80059
 Alpha virt. eigenvalues --    0.80179   0.80848   0.81004   0.81398   0.81729
 Alpha virt. eigenvalues --    0.82459   0.82801   0.83184   0.83871   0.84075
 Alpha virt. eigenvalues --    0.84414   0.84691   0.85400   0.85700   0.86225
 Alpha virt. eigenvalues --    0.86273   0.87094   0.87175   0.87541   0.88131
 Alpha virt. eigenvalues --    0.88209   0.88550   0.89293   0.89542   0.90106
 Alpha virt. eigenvalues --    0.90255   0.90983   0.91552   0.92033   0.92596
 Alpha virt. eigenvalues --    0.93490   0.94075   0.94106   0.94614   0.94842
 Alpha virt. eigenvalues --    0.95150   0.95560   0.95751   0.96651   0.96976
 Alpha virt. eigenvalues --    0.97008   0.97464   0.97904   0.98918   0.99137
 Alpha virt. eigenvalues --    0.99436   1.00001   1.00707   1.01046   1.01501
 Alpha virt. eigenvalues --    1.01984   1.02175   1.02353   1.03028   1.03344
 Alpha virt. eigenvalues --    1.03621   1.04108   1.04432   1.04944   1.05910
 Alpha virt. eigenvalues --    1.06234   1.06498   1.06618   1.07026   1.07587
 Alpha virt. eigenvalues --    1.08078   1.08545   1.08866   1.08968   1.09868
 Alpha virt. eigenvalues --    1.10143   1.11023   1.11814   1.12214   1.12887
 Alpha virt. eigenvalues --    1.13146   1.14072   1.14244   1.15442   1.15754
 Alpha virt. eigenvalues --    1.16142   1.16349   1.17675   1.18296   1.19170
 Alpha virt. eigenvalues --    1.20567   1.21368   1.22072   1.23134   1.23935
 Alpha virt. eigenvalues --    1.24010   1.24560   1.25603   1.26347   1.27428
 Alpha virt. eigenvalues --    1.28223   1.28943   1.29131   1.30470   1.31561
 Alpha virt. eigenvalues --    1.32152   1.32724   1.34200   1.35214   1.35777
 Alpha virt. eigenvalues --    1.35933   1.36687   1.38400   1.38583   1.38771
 Alpha virt. eigenvalues --    1.39336   1.39767   1.41854   1.41990   1.42131
 Alpha virt. eigenvalues --    1.42191   1.42549   1.42833   1.43338   1.43962
 Alpha virt. eigenvalues --    1.44926   1.44979   1.45589   1.45760   1.46146
 Alpha virt. eigenvalues --    1.46509   1.46708   1.46984   1.47330   1.47816
 Alpha virt. eigenvalues --    1.48204   1.48321   1.49004   1.49494   1.50236
 Alpha virt. eigenvalues --    1.51100   1.51888   1.52173   1.52348   1.53137
 Alpha virt. eigenvalues --    1.53487   1.53584   1.54119   1.54857   1.55076
 Alpha virt. eigenvalues --    1.55643   1.55929   1.56347   1.56936   1.57171
 Alpha virt. eigenvalues --    1.57481   1.57897   1.57984   1.58276   1.58442
 Alpha virt. eigenvalues --    1.58867   1.59045   1.59297   1.59608   1.60031
 Alpha virt. eigenvalues --    1.60563   1.61181   1.61628   1.62498   1.63741
 Alpha virt. eigenvalues --    1.64503   1.65302   1.65503   1.65534   1.66431
 Alpha virt. eigenvalues --    1.66546   1.67262   1.67479   1.67918   1.68343
 Alpha virt. eigenvalues --    1.68631   1.68784   1.69005   1.70248   1.71248
 Alpha virt. eigenvalues --    1.71467   1.71923   1.72442   1.72547   1.73101
 Alpha virt. eigenvalues --    1.73406   1.73510   1.74583   1.75434   1.75714
 Alpha virt. eigenvalues --    1.76137   1.76256   1.76718   1.76902   1.77332
 Alpha virt. eigenvalues --    1.77469   1.78064   1.78893   1.80365   1.81104
 Alpha virt. eigenvalues --    1.81549   1.82014   1.83604   1.83923   1.84157
 Alpha virt. eigenvalues --    1.84337   1.85323   1.85696   1.86144   1.86815
 Alpha virt. eigenvalues --    1.87123   1.88641   1.88861   1.89028   1.89314
 Alpha virt. eigenvalues --    1.89625   1.89696   1.90758   1.90892   1.91607
 Alpha virt. eigenvalues --    1.91970   1.92337   1.92661   1.92841   1.93408
 Alpha virt. eigenvalues --    1.93883   1.94176   1.95259   1.95897   1.97104
 Alpha virt. eigenvalues --    1.97646   1.97678   1.98848   1.99187   1.99323
 Alpha virt. eigenvalues --    1.99597   2.00206   2.00346   2.00817   2.01054
 Alpha virt. eigenvalues --    2.01430   2.02550   2.02735   2.03408   2.04151
 Alpha virt. eigenvalues --    2.04751   2.05532   2.05997   2.06183   2.06450
 Alpha virt. eigenvalues --    2.07376   2.07614   2.07902   2.08088   2.09085
 Alpha virt. eigenvalues --    2.09923   2.10229   2.10559   2.11271   2.11476
 Alpha virt. eigenvalues --    2.12106   2.12709   2.14730   2.15066   2.16871
 Alpha virt. eigenvalues --    2.17656   2.18340   2.19141   2.19485   2.21142
 Alpha virt. eigenvalues --    2.21639   2.22164   2.23412   2.25746   2.26376
 Alpha virt. eigenvalues --    2.26612   2.26937   2.28879   2.29362   2.30418
 Alpha virt. eigenvalues --    2.30522   2.31114   2.31570   2.32394   2.32641
 Alpha virt. eigenvalues --    2.33410   2.33800   2.34369   2.34680   2.35952
 Alpha virt. eigenvalues --    2.36216   2.37252   2.38033   2.38335   2.39029
 Alpha virt. eigenvalues --    2.39276   2.39501   2.40087   2.42801   2.43250
 Alpha virt. eigenvalues --    2.43348   2.44193   2.45872   2.46882   2.47505
 Alpha virt. eigenvalues --    2.47898   2.48426   2.48990   2.50069   2.51309
 Alpha virt. eigenvalues --    2.51592   2.52023   2.53607   2.53807   2.54400
 Alpha virt. eigenvalues --    2.54707   2.54889   2.56807   2.57002   2.57356
 Alpha virt. eigenvalues --    2.57760   2.58802   2.59120   2.59499   2.60252
 Alpha virt. eigenvalues --    2.60440   2.60892   2.61051   2.61401   2.61503
 Alpha virt. eigenvalues --    2.61762   2.62074   2.62695   2.63649   2.64105
 Alpha virt. eigenvalues --    2.64559   2.65082   2.65752   2.66074   2.66729
 Alpha virt. eigenvalues --    2.66970   2.67312   2.68029   2.68271   2.68415
 Alpha virt. eigenvalues --    2.68821   2.69109   2.69436   2.69627   2.70279
 Alpha virt. eigenvalues --    2.70646   2.71033   2.71314   2.71551   2.72799
 Alpha virt. eigenvalues --    2.73819   2.74040   2.74805   2.75159   2.75819
 Alpha virt. eigenvalues --    2.76748   2.77062   2.79055   2.79233   2.79468
 Alpha virt. eigenvalues --    2.80558   2.81578   2.83003   2.83171   2.83658
 Alpha virt. eigenvalues --    2.83851   2.84891   2.85359   2.85689   2.86133
 Alpha virt. eigenvalues --    2.86977   2.87519   2.88263   2.88358   2.89990
 Alpha virt. eigenvalues --    2.90739   2.90877   2.91668   2.92066   2.92415
 Alpha virt. eigenvalues --    2.93077   2.93729   2.94697   2.95661   2.96939
 Alpha virt. eigenvalues --    2.97761   3.00011   3.00095   3.00200   3.01071
 Alpha virt. eigenvalues --    3.01258   3.01597   3.02905   3.02961   3.03052
 Alpha virt. eigenvalues --    3.05043   3.05879   3.06105   3.07567   3.08287
 Alpha virt. eigenvalues --    3.08494   3.10017   3.10831   3.11448   3.14388
 Alpha virt. eigenvalues --    3.15637   3.17029   3.17595   3.18358   3.19335
 Alpha virt. eigenvalues --    3.19518   3.20053   3.21165   3.22836   3.23034
 Alpha virt. eigenvalues --    3.25055   3.26749   3.29223   3.30634   3.31411
 Alpha virt. eigenvalues --    3.32176   3.32863   3.34363   3.34410   3.35035
 Alpha virt. eigenvalues --    3.35750   3.37031   3.37097   3.37585   3.38606
 Alpha virt. eigenvalues --    3.40517   3.42283   3.44025   3.44848   3.46493
 Alpha virt. eigenvalues --    3.47626   3.48085   3.48654   3.49812   3.51731
 Alpha virt. eigenvalues --    3.52729   3.54618   3.55171   3.55395   3.57500
 Alpha virt. eigenvalues --    3.58988   3.60214   3.60884   3.61051   3.67507
 Alpha virt. eigenvalues --    3.73007   3.73906   3.74014   3.74357   3.74599
 Alpha virt. eigenvalues --    3.76963   3.77481   3.80043   3.82030   3.85679
 Alpha virt. eigenvalues --    3.86707   3.88036   3.88858   3.91343   3.94046
 Alpha virt. eigenvalues --    3.95271   3.96267   3.97957   3.98509   4.03074
 Alpha virt. eigenvalues --    4.03629   4.04917   4.05160   4.08574   4.09125
 Alpha virt. eigenvalues --    4.09291   4.09868   4.10065   4.11000   4.12291
 Alpha virt. eigenvalues --    4.13267   4.15065   4.15805   4.16259   4.17258
 Alpha virt. eigenvalues --    4.18577   4.34553   4.46554   4.51916   4.60140
 Alpha virt. eigenvalues --    4.70151   4.72245   4.80221   4.82714   4.83039
 Alpha virt. eigenvalues --    4.83382   4.83452   4.88283   4.88379   4.91583
 Alpha virt. eigenvalues --    5.00206   5.03033   5.12700   5.26714   5.26828
 Alpha virt. eigenvalues --    5.27079   5.53951   5.75576   5.76129   5.78123
 Alpha virt. eigenvalues --    7.78285   7.79404  17.11596  17.19810  17.28020
 Alpha virt. eigenvalues --   17.31033  17.48625  17.50402  23.43075  23.47370
 Alpha virt. eigenvalues --   23.51343  23.53934  23.62799  23.70945  23.77442
 Alpha virt. eigenvalues --   23.81081  23.84705  23.84827  23.84927  23.88117
 Alpha virt. eigenvalues --   23.88639  23.89173  23.90284  23.91182  23.92288
 Alpha virt. eigenvalues --   23.92397  23.93662  24.00590  24.00871  24.02904
 Alpha virt. eigenvalues --   24.03484  24.03963  24.10109  24.10419  24.10900
 Alpha virt. eigenvalues --   24.11693  24.12823  24.13580  24.16665  24.16999
 Alpha virt. eigenvalues --   24.17306  24.42487  35.46449  35.59462  35.63486
 Alpha virt. eigenvalues --   35.83145  49.83739  49.90567  49.90663  50.01013
 Alpha virt. eigenvalues --  188.88760 188.91016
          Condensed to atoms (all electrons):
 Mulliken charges:
               1
     1  C   -0.133325
     2  O   -0.346577
     3  C    0.174107
     4  C   -0.131263
     5  C   -0.060939
     6  C    0.054101
     7  N   -0.494694
     8  C    0.204382
     9  C   -0.116692
    10  C   -0.041871
    11  C   -0.002573
    12  C   -0.094972
    13  C   -0.116867
    14  H    0.120274
    15  H    0.104537
    16  C   -0.266542
    17  S    0.323847
    18  C   -0.289055
    19  C    0.003062
    20  C   -0.038542
    21  H    0.099449
    22  H    0.127593
    23  C    0.115435
    24  C   -0.117130
    25  C   -0.038987
    26  C   -0.072546
    27  C    0.127547
    28  C    0.140522
    29  N   -0.501072
    30  S    0.564261
    31  N   -0.491625
    32  C    0.036978
    33  C   -0.174598
    34  C    0.066919
    35  N   -0.232155
    36  C    0.432225
    37  O   -0.291262
    38  O   -0.296039
    39  H    0.245869
    40  H    0.113367
    41  H    0.133626
    42  H    0.109272
    43  H    0.094073
    44  H    0.119062
    45  C    0.053521
    46  C   -0.060522
    47  C   -0.131481
    48  C    0.173883
    49  C   -0.085757
    50  C   -0.056089
    51  H    0.107032
    52  H    0.107215
    53  O   -0.346988
    54  C   -0.133332
    55  H    0.112247
    56  H    0.111589
    57  H    0.132164
    58  H    0.108264
    59  H    0.104650
    60  C   -0.056418
    61  C   -0.085173
    62  H    0.107931
    63  H    0.107135
    64  H    0.104285
    65  H    0.108213
    66  H    0.132549
    67  H    0.112753
    68  H    0.111145
 Sum of Mulliken charges =   0.00000
 Mulliken charges with hydrogens summed into heavy atoms:
               1
     1  C    0.223122
     2  O   -0.346577
     3  C    0.174107
     4  C   -0.023050
     5  C    0.043346
     6  C    0.054101
     7  N   -0.494694
     8  C    0.204382
     9  C    0.002370
    10  C    0.052202
    11  C   -0.002573
    12  C    0.009566
    13  C    0.003407
    16  C   -0.266542
    17  S    0.323847
    18  C   -0.289055
    19  C    0.130655
    20  C    0.060908
    23  C    0.115435
    24  C   -0.007858
    25  C    0.094640
    26  C   -0.072546
    27  C    0.127547
    28  C    0.140522
    29  N   -0.501072
    30  S    0.564261
    31  N   -0.491625
    32  C    0.150345
    33  C   -0.174598
    34  C    0.066919
    35  N   -0.232155
    36  C    0.432225
    37  O   -0.291262
    38  O   -0.050170
    45  C    0.053521
    46  C    0.044129
    47  C   -0.023218
    48  C    0.173883
    49  C    0.021458
    50  C    0.050943
    53  O   -0.346988
    54  C    0.222668
    60  C    0.050717
    61  C    0.022758
 Electronic spatial extent (au):  <R**2>=          58763.4357
 Charge=              0.0000 electrons
 Dipole moment (field-independent basis, Debye):
    X=             14.2353    Y=             -5.6158    Z=             -1.5887  Tot=             15.3852
 Quadrupole moment (field-independent basis, Debye-Ang):
   XX=           -299.3180   YY=           -266.6071   ZZ=           -266.0623
   XY=             63.7117   XZ=             16.1928   YZ=              5.1632
 Traceless Quadrupole moment (field-independent basis, Debye-Ang):
   XX=            -21.9889   YY=             10.7221   ZZ=             11.2668
   XY=             63.7117   XZ=             16.1928   YZ=              5.1632
 Octapole moment (field-independent basis, Debye-Ang**2):
  XXX=           1951.0785  YYY=            -69.1424  ZZZ=             -0.7883  XYY=            351.5178
  XXY=           -563.6211  XXZ=           -224.8051  XZZ=             11.4203  YZZ=              6.0191
  YYZ=              3.1087  XYZ=            111.9224
 Hexadecapole moment (field-independent basis, Debye-Ang**3):
 XXXX=         -76551.5095 YYYY=         -10163.7553 ZZZZ=           -752.6885 XXXY=           5638.1571
 XXXZ=           1575.8000 YYYX=           1691.4155 YYYZ=            163.6539 ZZZX=             22.9770
 ZZZY=            -26.5191 XXYY=         -13271.7025 XXZZ=         -11335.9567 YYZZ=          -1864.9503
 XXYZ=            329.9508 YYXZ=            285.8389 ZZXY=             13.8827
 N-N= 4.738910814680D+03 E-N=-1.563341569896D+04  KE= 2.618688587285D+03
 1\1\GINC-N008\SP\RB3LYP TD-FC\6-311G(d,p)\C34H24N4O4S2\R2532\16-May-20
 21\0\\#N TD(NStates=10) B3lYP/6-311G(d,p)\\Name\\0,1\C,0,-7.854865,6.0
 24058,-0.403487\O,0,-6.930098,5.445576,0.507285\C,0,-6.551439,4.151509
 ,0.3146\C,0,-7.013084,3.328698,-0.716028\C,0,-6.548922,2.017843,-0.819
 648\C,0,-5.63931,1.50177,0.102244\N,0,-5.195402,0.146676,0.004616\C,0,
 -3.831426,-0.166409,0.016121\C,0,-3.376849,-1.423317,0.463194\C,0,-2.0
 28745,-1.730473,0.469197\C,0,-1.05804,-0.808007,0.035304\C,0,-1.519446
 ,0.446258,-0.403126\C,0,-2.865936,0.763307,-0.416735\H,0,-3.182701,1.7
 31893,-0.780526\H,0,-0.810972,1.178648,-0.774162\C,0,0.355386,-1.15675
 6,0.040233\S,0,1.59829,0.071945,0.059677\C,0,2.889919,-1.128032,0.0418
 58\C,0,2.339225,-2.399356,0.041965\C,0,0.933701,-2.413395,0.039446\H,0
 ,0.351646,-3.324188,0.004324\H,0,2.952581,-3.286838,0.029235\C,0,4.274
 635,-0.725308,0.027824\C,0,4.663327,0.611667,-0.041976\C,0,5.998093,1.
 048696,-0.058794\C,0,7.081872,0.178411,-0.008897\C,0,6.743828,-1.21949
 ,0.067869\C,0,5.36506,-1.673476,0.086099\N,0,5.25742,-3.000011,0.16240
 2\S,0,6.774991,-3.613123,0.206354\N,0,7.627557,-2.214635,0.131885\C,0,
 8.479634,0.528438,-0.0263\C,0,9.115721,1.732156,-0.098297\C,0,8.432816
 ,2.976899,-0.214181\N,0,7.85974,3.978005,-0.29075\C,0,10.612934,1.8439
 6,-0.167833\O,0,11.17017,2.794364,-0.639908\O,0,11.326407,0.795559,0.3
 20491\H,0,10.764773,0.217454,0.849414\H,0,9.119864,-0.348824,-0.005237
 \H,0,6.16939,2.114206,-0.118876\H,0,3.896732,1.375424,-0.092792\H,0,-1
 .717481,-2.694805,0.853227\H,0,-4.091832,-2.15159,0.822929\C,0,-6.1824
 85,-0.88051,-0.109488\C,0,-7.243138,-0.949132,0.79286\C,0,-8.226109,-1
 .931155,0.674294\C,0,-8.146178,-2.876241,-0.351647\C,0,-7.080856,-2.81
 3495,-1.259788\C,0,-6.119176,-1.823881,-1.145719\H,0,-5.306643,-1.7768
 38,-1.861042\H,0,-7.039224,-3.545811,-2.056842\O,0,-9.042096,-3.882022
 ,-0.555863\C,0,-10.140418,-4.002717,0.337475\H,0,-9.804647,-4.183713,1
 .364656\H,0,-10.777211,-3.11122,0.314833\H,0,-10.712574,-4.86124,-0.00
 9852\H,0,-9.036138,-1.951624,1.390748\H,0,-7.307425,-0.223104,1.594546
 \C,0,-5.19181,2.330782,1.141623\C,0,-5.633098,3.639345,1.240941\H,0,-5
 .292087,4.286042,2.040189\H,0,-4.491923,1.941314,1.871452\H,0,-6.90643
 9,1.386992,-1.624756\H,0,-7.721313,3.69391,-1.447422\H,0,-8.009898,7.0
 45443,-0.060366\H,0,-7.455829,6.042205,-1.423759\H,0,-8.812336,5.49115
 3,-0.39674\\Version=ES64L-G09RevD.01\State=1-A\HF=-2626.7854503\RMSD=3
 .398e-09\PG=C01 [X(C34H24N4O4S2)]\\@


 SIGN SEEN IN A RESTAURANT-
 WE RESERVE THE RIGHT TO SERVE REFUSE TO ANYONE.
 Job cpu time:       0 days  6 hours 26 minutes 50.0 seconds.
 File lengths (MBytes):  RWF=   2213 Int=      0 D2E=      0 Chk=    320 Scr=      1
 Normal termination of Gaussian 09 at Sun May 16 14:27:58 2021.
