 --invoking executable--
/ddn/home1/r1621/maple/bin/tempQC/bin/cfour_v2devel_2015_06_18_g++_intel_2011.12.361/bin/xjoda


   *************************************************************************
         <<<     CCCCCC     CCCCCC   |||     CCCCCC     CCCCCC   >>>
       <<<      CCC        CCC       |||    CCC        CCC         >>>
      <<<      CCC        CCC        |||   CCC        CCC            >>>
    <<<        CCC        CCC        |||   CCC        CCC              >>>
      <<<      CCC        CCC        |||   CCC        CCC            >>>
       <<<      CCC        CCC       |||    CCC        CCC         >>>
         <<<     CCCCCC     CCCCCC   |||     CCCCCC     CCCCCC   >>>
   *************************************************************************

     ****************************************************************
     * CFOUR Coupled-Cluster techniques for Computational Chemistry *
     ****************************************************************
 

   Department of Chemistry                Institut fuer Physikalische Chemie
   University of Texas at Austin          Universitaet Mainz
   Austin, TX  78712, USA                 D-55099 Mainz, Germany
 
                       Version 1.2
 
                     cn008                                             
                     Tue Jul 13 11:38:55 CDT 2021                      
                     integer*8 version is running
 
********************************************************************************
*                          Input from ZMAT file                                *
********************************************************************************
CNCN                                                                            
O    0.059870   -0.483497    0.000000                                           
C    0.059870    0.796315    0.000000                                           
H   -0.838178   -0.909916    0.000000                                           
                                                                                
*CFOUR(CHARGE=-1,REFERENCE=RHF,SPHERICAL=ON,BASIS=AUG-PVDZ                      
       LINDEP_TOL=7,LINEQ_CONV=7,SCF_CONV=6,SCF_MAXCYC=250                      
       CALC=CC2,EXCITE=EOMEE,ESTATE_SYM=1/1                                     
       COORDS=CARTESIAN                                                         
       FROZEN_CORE=ON,ABCDTYPE=AOBASIS                                          
       CONVERGENCE=7,MEMORY_SIZE=8,MEM_UNIT=GB)                                 
                                                                                
********************************************************************************
    -------------------------------------------------------------------
                    CFOUR Control Parameters 
    -------------------------------------------------------------------
        External           Internal           Value            Units
          Name               Name
    -------------------------------------------------------------------
       ABCDTYPE             IABCDT         AOBASIS      [  2]   ***   
       ANHARMONIC           IANHAR         OFF          [  0]   ***   
       ANH_ALGORIT          IANALG         STANDARD     [  0]   ***   
       ANH_DERIVAT          IANDER         SECOND       [  1]   ***   
       ANH_STEPSIZ          ICUBST             50000          x 10-6  
       ANH_SYMMETR          IANHSM         ABELIAN      [  0]   ***   
       AO_LADDERS           IAOLAD         SINGLEPASS   [  1]   ***   
       AV_SCF               IAVSCF         OFF          [  0]   ***   
       BASIS                IBASIS         AUG-PVDZ     [ 33]   ***   
       BOTHVECTORS          BOTHVC         OFF          [  0]   ***   
       BOX_POTENT           IPIAB          OFF          [  0]   ***   
       BREIT                IBREIT         OFF          [  0]   ***   
       BRUCK_CONV           IBRTOL          10D-  4             ***   
       BRUECKNER            IBRKNR             OFF      [  0]   ***   
       BUFFERSIZE           IBUFFS            600               ***   
       CACHE_RECS           ICHREC             10               ***   
       CALCLEVEL            ICLLVL           CC2        [ 31]   ***   
       CCORBOPT             ICCORB             OFF      [  0] x 0.01  
       CC_CONV              ICCCNV          10D-  7             ***   
       CC_EXPORDER          ICCEOR              5               ***   
       CC_EXTRAPOL          ICCEXT             DIIS     [  1]   ***   
       CC_GUESS             ICCGES         MP2          [  0]   ***   
       CC_MAXCYC            ICCCYC            100              cycles 
       CC_PROGRAM           ICCPRO         VCC          [  0]   ***   
       CHARGE               ICHRGE             -1               ***   
       CHOLESKY             ICHOLE         OFF          [  0]   ***   
       CIS_CONV             ICISTL              5               ***   
       COMM_SIZE            IPSIZE            ***               ***   
       CONSTANT             ICONST         OLD          [  1]   ***   
       CONTINUUM            ICONTU         NONE         [  0]   ***   
       CONTRACTION          ICNTYP          GENERAL     [  1]   ***   
       COORDINATES          ICOORD         CARTESIAN    [  1]   ***   
       CPHF_CONVER          ICPHFT          10D- 16             ***   
       CPHF_MAXCYC          ICPHFC             64              cycles 
       CUBIC                ICUBIC         OFF          [  0]   ***   
       CURVILINEAR          ICURVY            OFF       [  0]   ***   
       DBOC                 IDBOC          OFF          [  0]   ***   
       DCT                  IDCT           OFF          [  0]   ***   
       DERIV_LEV            IDRLVL            ZERO      [  0]   ***   
       DEVMEM_SIZE          IDVMEM         *********           MByte  
       DIAG_MRCC            IEOMST          10D-  0             ***   
       DIFF_TYPE            IDIFTY         RELAXED      [  0]   ***   
       DIRECT               IDIRCT         OFF          [  0]   ***   
       DROPMO               IDRPMO      NONE         
       ECP                  IECP           OFF          [  0]   ***   
       EIGENVECTOR          IVEC                1               ***   
       EL_ANHARM            IELANH         OFF          [  0]   ***   
       EOMFOLLOW            IEOMSR         ENERGY       [  0]   ***   
       EOMIP                IEOMIP         OFF          [  0]   ***   
       EOM_MRCC             IMRCCE         NEW          [  1]   ***   
       EOM_NONIT            EOMNON         OFF          [  0]   ***   
       EOM_NSING            IEOMSI          10D-  0             ***   
       EOM_NSTATES          IMRCCD         DAVIDSON     [  0]   ***   
       EOM_NTRIP            IEOMTR          10D-  0             ***   
       EOM_ORDER            IEXORD         ENERGY       [  0]   ***   
       EOM_PROPSTA          IEOMST              0               ***   
       ESTATE_CONV          IEXTOL          10D-  5             ***   
       ESTATE_DIAG          IEXDIG         ITERATIVE    [  0]   ***   
       ESTATE_LOCK          IESLOC         ON           [  1]   ***   
       ESTATE_MAXC          IEXMXC             40               ***   
       ESTATE_PROP          IEXPRP         OFF          [  0]   ***   
       ESTATE_SYM           IEXSYM   1,  1,
       EVAL_HESS            IRECAL              0            # of cyc.
       EXCITATION           IEXCIT              0               ***   
       EXCITE               IEXCIT         EOMEE        [  3]   ***   
       EXTERN_POT           IEXPOT         OFF          [  0]   ***   
       FCGRADNEW            IFCGNW         OFF          [  0]   ***   
       FC_FIELD             IFINFC              0             x 10-6  
       FD_CALTYPE           IFDCAL         GRADONLY     [  0]   ***   
       FD_PROJECT           IFDPRJ         OFF          [  1]   ***   
       FD_STEPSIZE          IDISFD              0            10-4 bohr
       FD_USEGROUP          IFDGRP         FULL         [  0]   ***   
       FILE_RECSIZ          IFLREC              4096           words  
       FINITE_PERT          IFIPER              0             x 10-6  
       FIXGEOM              IFIXGM         OFF          [  0]   ***   
       FOCK                 IFOCK          AO           [  1]   ***   
       FREQ_ALGORI          IVIALG         STANDARD     [  0]   ***   
       FROZEN_CORE          IFROCO         ON           [  1]   ***   
       FROZEN_VIRT          IFROVI         OFF          [  0]   ***   
       GAMMA_ABCD           IGABCD         DIRECT       [  1]   ***   
       GAMMA_ABCI           IGABCI         STORE        [  0]   ***   
       GENBAS_1             IGNBS1              0               ***   
       GENBAS_2             IGNBS2              0               ***   
       GENBAS_3             IGNBS3              0               ***   
       GENBAS_4             IGNBS4              0               ***   
       GEO_CONV             ICONTL              7              H/bohr 
       GEO_MAXCYC           IOPTCY             50               ***   
       GEO_MAXSTEP          IMXSTP            300            millibohr
       GEO_METHOD           INR            SINGLE_POINT [  5]   ***   
       GIAO                 IGIAO          OFF          [  1]   ***   
       GIMIC                IGIMIC         OFF          [  0]   ***   
       GRID                 IGRID          OFF          [  0]   ***   
       GRID_ALGO            IGALGO         SERIAL       [  0]   ***   
       GUESS                IGUESS            MOREAD    [  0]   ***   
       HBAR                 IHBAR               ON      [  1]   ***   
       HESS_TYPE            IHESTP         SCF          [  0]   ***   
       HF2_FILE             IHF2Fl         USE          [  1]   ***   
       HFSTABILITY          ISTABL         OFF          [  0]   ***   
       INCORE               INCORE             OFF      [  0]   ***   
       INPUT_MRCC           IMRCC          ON           [  1]   ***   
       INTEGRALS            INTTYP             VMOL     [  1]   ***   
       JODA_PRINT           IJPRNT              0               ***   
       KEYWORD_OUT          IDMPKW         NO           [  0]   ***   
       LINDEP_TOL           ILINDP              7               ***   
       LINEQ_CONV           IZTACN          10D-  7           cycles  
       LINEQ_EXPOR          ILMAXD              5               ***   
       LINEQ_MAXCY          ILMAXC            100               ***   
       LINEQ_TYPE           ILTYPE         DIIS         [  1]   ***   
       LOCK_ORBOCC          ILOCOC             OFF      [  0]   ***   
       MEMORY_SIZE          IMEMSZ         *********           words  
       MEM_UNIT             IMEMU          GB           [  3]   ***   
       MRCC                 IMRCCC         OFF          [  0]   ***   
       MULTIPLICTY          IMULTP              1               ***   
       NACOUPLING           IVCOUP         OFF          [  0]   ***   
       NEGEVAL              IDIE             ABORT      [  0]   ***   
       NEWNORM              INEWNO         OFF          [  0]   ***   
       NON-HF               INONHF             OFF      [  0]   ***   
       NTOP_TAMP            ITOPT2             15               ***   
       NUC_MODEL            INUCMO         POINT        [  0]   ***   
       OCCUPATION           IOCCU   ESTIMATED BY SCF 
       OPEN-SHELL           IOPEN          SPIN-ORBITAL [  0]   ***   
       OPTVIB               IOPTVB         OFF          [  0]   ***   
       ORBITALS             IORBTP           STANDARD   [  0]   ***   
       PARALLEL             IPARAL         ON           [  1]   ***   
       PARA_INT             IPINTS         ON           [  1]   ***   
       PARA_PRINT           IPPRIN              0               ***   
       PERT_ORB             IPTORB         STANDARD     [  0]   ***   
       POINTS               IGRDFD              0               ***   
       PRINT                IPRNT               0               ***   
       PROPS                IPROPS             OFF      [  0]   ***   
       PROP_INTEGR          IINTYP         INTERNAL     [  0]   ***   
       PSI                  IPSI           OFF          [  0]   ***   
       QRHFGUESS            IQGUES         OFF          [  0]   ***   
       QUARTIC              IQUART         OFF          [  0]   ***   
       RAMAN_INT            IRAMIN         OFF          [  0]   ***   
       RAMAN_ORB            IRAMRE         UNRELAXED    [  0]   ***   
       RDO                  IRDOFM             OFF      [  0]   ***   
       REFERENCE            IREFNC             RHF      [  0]   ***   
       RELATIVIST           IRELAT         OFF          [  0]   ***   
       RELAX_DENS           IRDENS             OFF      [  0]   ***   
       RESET_FLAGS          IRESET             OFF      [  0]   ***   
       RESTART_CC           ICCRES         OFF          [  0]   ***   
       ROT_EVEC             ROTVEC              0               ***   
       SAVE_INTS            ISVINT             OFF      [  0]   ***   
       SCALE_ON             ISTCRT              0               ***   
       SCF_CONV             ISCFCV          10D-  6             ***   
       SCF_DAMPING          IDAMP               0             x 10-3  
       SCF_EXPORDE          IRPPOR              6               ***   
       SCF_EXPSTAR          IRPPLS              8               ***   
       SCF_EXTRAPO          IRPP                ON      [  1]   ***   
       SCF_MAXCYC           ISCFCY            250              cycles 
       SCF_NOSTOP           ISCFST         OFF          [  0]   ***   
       SCF_PRINT            ISCFPR              0               ***   
       SD_FIELD             IFINSD              0             x 10-6  
       SOPERT               IPERSO         OFF          [  0]   ***   
       SPHERICAL            IDFGHI             ON       [  1]   ***   
       SPINORBIT            ISOCAL         OFF          [  0]   ***   
       SPINROTATIO          ISRCON         OFF          [  0]   ***   
       SPIN_FLIP            ISPFLP         OFF          [  0]   ***   
       SPIN_ORBIT           ISPORB         OFF          [  0]   ***   
       SPIN_SCAL            ISCSMP         OFF          [  0]   ***   
       STEEPSCALE           ISTPSC              1000          x 10-3  
       SUBGROUP             ISUBGP         DEFAULT      [  0]   ***   
       SUBGRPAXIS           ISBXYZ         X            [  0]   ***   
       SYMMETRY             ISYM             ON         [  0]   ***   
       SYM_CHECK            ISYMCK         OVERRIDE     [  1]   ***   
       T3_EXTRAPOL          IT3EXT         OFF          [  0]   ***   
       T4_EXTRAPOL          IT4EXP         OFF          [  0]   ***   
       TAMP_SUM             IEVERY              5               ***   
       TESTSUITE            ITESTS         OFF          [  0]   ***   
       THERMOCH             ITHERM         OFF          [  0]   ***   
       TOL_CHOLESK          ITOLCH          10D-  4             ***   
       TRANGRAD             IRESRM         OFF          [  0]   ***   
       TRANS_INV            ITRAIN         USE          [  0]   ***   
       TREAT_PERT           ITREAT         SIMULTANEOUS [  0]   ***   
       TRIP_ALGORI          ITRALG         NORMAL       [  0]   ***   
       UIJ_THRESHO          IUIJTH              1               ***   
       UNITS                IUNITS         ANGSTROM     [  0]   ***   
       UNOS                 IUNOS          OFF          [  0]   ***   
       UPDATE_HESS          IHUPDT         ON           [  1]   ***   
       VIBPHASE             ISETPH         STANDARD     [  0]   ***   
       VIBRATION            IVIB              NO        [  0]   ***   
       VIB_ALGORIT          IGEALG         STANDARD     [  0]   ***   
       VNATORB              IVNORB         OFF          [  0]   ***   
       VTRAN                IVTRAN         PARTIAL      [  2]   ***   
       XFIELD               IXEFLD              0             x 10-6  
       XFORM_TOL            IXFTOL          10D- 11             ***   
       YFIELD               IYEFLD              0             x 10-6  
       ZFIELD               IZEFLD              0             x 10-6  
       ZSCALE_EXP           IZEXPS         OFF          [  0]   ***   
    -------------------------------------------------------------------
  @GETXYZ-I,     3 atoms read from ZMAT.
  1  O          8    15.99491
  2  C          6    12.00000
  3  H          1     1.00783
  1  O          8    15.99491
  2  C          6    12.00000
  3  H          1     1.00783
   Rotational constants (in cm-1): 
          1.3028281851             1.3797193203            23.3776912221
   Rotational constants (in MHz): 
      39057.8118671067         41362.9504340810        700845.6495712404
********************************************************************************
   The full molecular point group is C s .
   The largest Abelian subgroup of the full molecular point group is C s .
   The computational point group is C s .
********************************************************************************
 ----------------------------------------------------------------
 Z-matrix   Atomic            Coordinates (in bohr)
  Symbol    Number           X              Y              Z
 ----------------------------------------------------------------
     O         8        -0.96559116    -0.13107085     0.00000000
     C         6         1.44621988     0.04860670     0.00000000
     H         1        -1.89525983     1.50143780     0.00000000
 ----------------------------------------------------------------
   Interatomic distance matrix (Angstroms) 
 
                 O             C             H    
                [ 1]        [ 2]        [ 3]
  O    [ 1]     0.00000
  C    [ 2]     1.27981     0.00000
  H    [ 3]     0.99414     1.92814     0.00000
   Rotational constants (in cm-1): 
         23.3776912221             1.3797193203             1.3028281851
   Rotational constants (in MHz): 
     700845.6495712366         41362.9504340810         39057.8118671067
  ECPDATA file not present.   Using default ECPDATA. 
 --invoking executable--
/ddn/home1/r1621/maple/bin/tempQC/bin/cfour_v2devel_2015_06_18_g++_intel_2011.12.361/bin/set_ecpdata
--executable set_ecpdata finished with status     0 in        0.03 seconds (walltime).
  There are   2 frozen-core orbitals.
  There are   55 basis functions.
 @GEOPT-W, Archive file not created for single-point calculation.
 @CHECKOUT-I, Total execution time (CPU/WALL):        0.14/       0.19 seconds.
--executable xjoda finished with status     0 in        0.19 seconds (walltime).
 --invoking executable--
/ddn/home1/r1621/maple/bin/tempQC/bin/cfour_v2devel_2015_06_18_g++_intel_2011.12.361/bin/xvmol
 Serial version of molecule started
********************************************************************************
                    Input from MOL file
********************************************************************************
INTGRL        1    0    1    0    0    0    0    0    0                         
         *** CFOUR Program System (Release V0.1) ***                            
CNCN                                                                            
    3    1 Z          0.10E-08              0    0                              
   9999.00      3.00                                                            
          8.00000000    1    3    1    1    1                                   
O #1  -0.965591162307348  -0.131070848362389   0.000000000000000                
   10    4                                                                      
   11720.0000000000       7.100000000000000E-004 -1.600000000000000E-004        
  0.000000000000000E+000  0.000000000000000E+000                                
   1759.00000000000       5.470000000000000E-003 -1.263000000000000E-003        
  0.000000000000000E+000  0.000000000000000E+000                                
   400.800000000000       2.783700000000000E-002 -6.267000000000000E-003        
  0.000000000000000E+000  0.000000000000000E+000                                
   113.700000000000       0.104800000000000      -2.571600000000000E-002        
  0.000000000000000E+000  0.000000000000000E+000                                
   37.0300000000000       0.283062000000000      -7.092400000000000E-002        
  0.000000000000000E+000  0.000000000000000E+000                                
   13.2700000000000       0.448719000000000      -0.165411000000000             
  0.000000000000000E+000  0.000000000000000E+000                                
   5.02500000000000       0.270952000000000      -0.116955000000000             
  0.000000000000000E+000  0.000000000000000E+000                                
   1.01300000000000       1.545800000000000E-002  0.557368000000000             
  0.000000000000000E+000  0.000000000000000E+000                                
  0.302300000000000      -2.585000000000000E-003  0.572759000000000             
   1.00000000000000       0.000000000000000E+000                                
  7.896000000000000E-002  0.000000000000000E+000  0.000000000000000E+000        
  0.000000000000000E+000   1.00000000000000                                     
    5    3                                                                      
   17.7000000000000       4.301800000000000E-002  0.000000000000000E+000        
  0.000000000000000E+000                                                        
   3.85400000000000       0.228913000000000       0.000000000000000E+000        
  0.000000000000000E+000                                                        
   1.04600000000000       0.508728000000000       0.000000000000000E+000        
  0.000000000000000E+000                                                        
  0.275300000000000       0.460531000000000        1.00000000000000             
  0.000000000000000E+000                                                        
  6.856000000000000E-002  0.000000000000000E+000  0.000000000000000E+000        
   1.00000000000000                                                             
    2    2                                                                      
   1.18500000000000        1.00000000000000       0.000000000000000E+000        
  0.332000000000000       0.000000000000000E+000   1.00000000000000             
          6.00000000    1    3    1    1    1                                   
C #2   1.446219876038203   0.048606702249389   0.000000000000000                
   10    4                                                                      
   6665.00000000000       6.920000000000000E-004 -1.460000000000000E-004        
  0.000000000000000E+000  0.000000000000000E+000                                
   1000.00000000000       5.329000000000000E-003 -1.154000000000000E-003        
  0.000000000000000E+000  0.000000000000000E+000                                
   228.000000000000       2.707700000000000E-002 -5.725000000000000E-003        
  0.000000000000000E+000  0.000000000000000E+000                                
   64.7100000000000       0.101718000000000      -2.331200000000000E-002        
  0.000000000000000E+000  0.000000000000000E+000                                
   21.0600000000000       0.274740000000000      -6.395500000000000E-002        
  0.000000000000000E+000  0.000000000000000E+000                                
   7.49500000000000       0.448564000000000      -0.149981000000000             
  0.000000000000000E+000  0.000000000000000E+000                                
   2.79700000000000       0.285074000000000      -0.127262000000000             
  0.000000000000000E+000  0.000000000000000E+000                                
  0.521500000000000       1.520400000000000E-002  0.544529000000000             
  0.000000000000000E+000  0.000000000000000E+000                                
  0.159600000000000      -3.191000000000000E-003  0.580496000000000             
   1.00000000000000       0.000000000000000E+000                                
  4.690000000000000E-002  0.000000000000000E+000  0.000000000000000E+000        
  0.000000000000000E+000   1.00000000000000                                     
    5    3                                                                      
   9.43900000000000       3.810900000000000E-002  0.000000000000000E+000        
  0.000000000000000E+000                                                        
   2.00200000000000       0.209480000000000       0.000000000000000E+000        
  0.000000000000000E+000                                                        
  0.545600000000000       0.508557000000000       0.000000000000000E+000        
  0.000000000000000E+000                                                        
  0.151700000000000       0.468842000000000        1.00000000000000             
  0.000000000000000E+000                                                        
  4.041000000000000E-002  0.000000000000000E+000  0.000000000000000E+000        
   1.00000000000000                                                             
    2    2                                                                      
  0.550000000000000        1.00000000000000       0.000000000000000E+000        
  0.151000000000000       0.000000000000000E+000   1.00000000000000             
          1.00000000    1    2    1    1                                        
H #3  -1.895259829371008   1.501437799712345   0.000000000000000                
    5    3                                                                      
   13.0100000000000       1.968500000000000E-002  0.000000000000000E+000        
  0.000000000000000E+000                                                        
   1.96200000000000       0.137977000000000       0.000000000000000E+000        
  0.000000000000000E+000                                                        
  0.444600000000000       0.478148000000000       0.000000000000000E+000        
  0.000000000000000E+000                                                        
  0.122000000000000       0.501240000000000        1.00000000000000             
  0.000000000000000E+000                                                        
  2.974000000000000E-002  0.000000000000000E+000  0.000000000000000E+000        
   1.00000000000000                                                             
    2    2                                                                      
  0.727000000000000        1.00000000000000       0.000000000000000E+000        
  0.141000000000000       0.000000000000000E+000   1.00000000000000             
FINISH                                                                          
 
********************************************************************************
 One- and two-electron integrals over symmetry-adapted AOs are calculated.

  Spherical harmonics are used.
  
  Integrals less than  0.10E-13 are neglected.

  Nuclear repulsion energy :   25.7521068915 a.u.
  required memory for a1 array                5020257  words 
  required memory for a2 array                2070308  words 
 @GETMEM-I,  Allocated      69 MB of main memory.
  @MOLECU-I, One electron integrals (CPU/WALL):        0.01/       0.14 seconds.
  @TWOEL-I,     298632 integrals of symmetry type  I I I I
  @TWOEL-I,     185478 integrals of symmetry type  I J I J
  @TWOEL-I,     100384 integrals of symmetry type  I I J J
  @TWOEL-I, Total number of 2-e integrals     584494.
  @MOLECU-I, Two electron integrals (CPU/WALL):        8.56/       1.14 seconds.
 @CHECKOUT-I, Total execution time (CPU/WALL):        8.66/       1.29 seconds.
--executable xvmol finished with status     0 in        1.35 seconds (walltime).
 --invoking executable--
/ddn/home1/r1621/maple/bin/tempQC/bin/cfour_v2devel_2015_06_18_g++_intel_2011.12.361/bin/xvmol2ja
 @GETMEM-I,  Allocated    7629 MB of main memory.
 @CHECKOUT-I, Total execution time (CPU/WALL):        0.91/       0.22 seconds.
--executable xvmol2ja finished with status     0 in        0.33 seconds (walltime).
 --invoking executable--
/ddn/home1/r1621/maple/bin/tempQC/bin/cfour_v2devel_2015_06_18_g++_intel_2011.12.361/bin/xvscf
  There are   55 functions in the AO basis.

  There are 2 irreducible representations.

       Irrep        # of functions
         1                 39
         2                 16


  Parameters for SCF calculation: 
        SCF reference function:  RHF  
  Maximum number of iterations:  250
     Full symmetry point group: C s 
     Computational point group: C s 
        Initial density matrix: MOREAD                 
     SCF convergence tolerance: 10**(- 6)
  DIIS convergence acceleration:  ON
          Latest start for DIIS:   8
                     DIIS order:   6

  Warning: SCF convergence tolerance of 10**(- 6) is not too stringent.
           *****   Use results with CAUTION!!!   *****

  Memory information:     166958 words required.
  Fock matrices are constructed from AO integral file.
 @GETMEM-I,  Allocated       1 MB of main memory.
  Initialization and symmetry analysis required      0.001 seconds.

  @INITGES-I, Occupancies from core Hamiltonian:

          Alpha population by irrep:   7    1
           Beta population by irrep:   7    1


 total no. of electrons in initial guess :  0.000000000000000E+000
  --------------------------------------------------------------------
  Iteration         Total Energy            Largest Density Difference
  --------------------------------------------------------------------
       0            25.752106891545992              0.0000000000D+00
   current occupation vector 
     7  1
     7  1
       1          -101.226374014485586              0.1107365147D+02
   current occupation vector 
     7  1
     7  1
       2           -92.075059215240046              0.8635285491D+02
   current occupation vector 
     7  1
     7  1
       3          -104.277106001508599              0.8681520695D+02
   current occupation vector 
     7  1
     7  1
       4           -95.414715295439422              0.3872476510D+02
   current occupation vector 
     7  1
     7  1
       5          -104.528881672764896              0.3872275761D+02
   current occupation vector 
     7  1
     7  1
       6           -95.841199729433853              0.3678593096D+02
   current occupation vector 
     7  1
     7  1
       7          -103.366211848961683              0.3678027386D+02
   current occupation vector 
     7  1
     7  1
       8           -96.891117006510115              0.9227375369D+01
   current occupation vector 
     7  1
     7  1
       9          -108.514452348475686              0.5678489889D+01
   current occupation vector 
     7  1
     7  1
      10          -110.687121448630677              0.1812238071D+01
   current occupation vector 
     7  1
     7  1
      11          -111.486993781595004              0.5824663045D+00
   current occupation vector 
     7  1
     7  1
      12          -112.738040650549408              0.8851901296D+00
   current occupation vector 
     7  1
     7  1
      13          -113.085366194616796              0.4507767589D+00
   current occupation vector 
     7  1
     7  1
      14          -113.122268570304954              0.1763116337D+00
   current occupation vector 
     7  1
     7  1
      15          -113.124631209791858              0.1232007128D+00
   current occupation vector 
     7  1
     7  1
      16          -113.125150785417731              0.4065170545D-01
   current occupation vector 
     7  1
     7  1
      17          -113.125369106056354              0.4036002141D-01
   current occupation vector 
     7  1
     7  1
      18          -113.125434891699427              0.3768886214D-01
   current occupation vector 
     7  1
     7  1
      19          -113.125481458522927              0.4884266755D-01
   current occupation vector 
     7  1
     7  1
      20          -113.125530943819683              0.8500323550D-01
   current occupation vector 
     7  1
     7  1
      21          -113.125548239219484              0.6334924877D-01
   current occupation vector 
     7  1
     7  1
      22          -113.125550560531110              0.1999644931D-01
   current occupation vector 
     7  1
     7  1
      23          -113.125551086254205              0.1520960676D-01
   current occupation vector 
     7  1
     7  1
      24          -113.125551090195756              0.2286756167D-02
   current occupation vector 
     7  1
     7  1
      25          -113.125551098182683              0.1943910527D-02
   current occupation vector 
     7  1
     7  1
      26          -113.125551099308012              0.3833740216D-03
   current occupation vector 
     7  1
     7  1
      27          -113.125551099615421              0.1556790068D-03
   current occupation vector 
     7  1
     7  1
      28          -113.125551099681985              0.1373265847D-03
   current occupation vector 
     7  1
     7  1
      29          -113.125551099684600              0.1066010937D-04
   current occupation vector 
     7  1
     7  1
      30          -113.125551099686447              0.8454110174D-05
   current occupation vector 
     7  1
     7  1
      31          -113.125551099689289              0.2495333627D-04
   current occupation vector 
     7  1
     7  1
      32          -113.125551099689574              0.1472259565D-04
   current occupation vector 
     7  1
     7  1

  SCF has converged.

 Density matrix saved to file den.dat
 total electron number:   16.0000000000001     
     E(SCF)=      -113.125551099689574              0.3293528430D-06

  Eigenvector printing suppressed.

 @PUTMOS-I, Writing converged MOs to NEWMOS. 
 @PUTMOS-I, Symmetry   1 Full Blocks  9 Partial Blocksize   3
 @PUTMOS-I, Symmetry   2 Full Blocks  4 Partial Blocksize   0


 
  ORBITAL EIGENVALUES (ALPHA)  (1H = 27.2113838 eV)

       MO #        E(hartree)               E(eV)           FULLSYM    COMPSYM
       ----   --------------------   --------------------   -------   ---------
    1     1         -20.4246937881        -555.7841820651     A'        A'  (1)
    2     2         -11.0425476544        -300.4830025693     A'        A'  (1)
    3     3          -1.2282609301         -33.4226796007     A'        A'  (1)
    4     4          -0.6366126644         -17.3231115560     A'        A'  (1)
    5     5          -0.4482950524         -12.1987287346     A'        A'  (1)
    6    40          -0.3712441434         -10.1020668755     A''       A'' (2)
    7     6          -0.2459347708          -6.6922254429     A'        A'  (1)
    8     7           0.0214277956           0.5830799710     A'        A'  (1)
  +++++++++++++++++++++++++++++++++++++++++++++++++++++++++++++++++++++++++++++
    9     8           0.1591326633           4.3302199780     A'        A'  (1)
   10    41           0.2468133623           6.7161331343     A''       A'' (2)
   11     9           0.2582661927           7.0277804969     A'        A'  (1)
   12    10           0.2842018985           7.7335269415     A'        A'  (1)
   13    11           0.3135389320           8.5318282200     A'        A'  (1)
   14    12           0.3542043318           9.6383900237     A'        A'  (1)
   15    42           0.3824942319          10.4081973525     A''       A'' (2)
   16    13           0.3834922410          10.4353545605     A'        A'  (1)
   17    43           0.4149299024          11.2908168327     A''       A'' (2)
   18    14           0.4916281227          13.3778815429     A'        A'  (1)
   19    15           0.5548774825          15.0989841478     A'        A'  (1)
   20    44           0.5666341502          15.4188993463     A''       A'' (2)
   21    16           0.6301948825          17.1484748279     A'        A'  (1)
   22    17           0.7019097232          19.0999348840     A'        A'  (1)
   23    45           0.7359695675          20.0267503807     A''       A'' (2)
   24    18           0.7491599779          20.3856797017     A'        A'  (1)
   25    19           0.8052331504          21.9115083194     A'        A'  (1)
   26    46           0.8183901972          22.2695297694     A''       A'' (2)
   27    20           0.8396303851          22.8475046762     A'        A'  (1)
   28    21           0.9527129469          25.9246376681     A'        A'  (1)
   29    47           1.0429061669          28.3789199940     A''       A'' (2)
   30    22           1.0691260349          29.0923988879     A'        A'  (1)
   31    23           1.1091623758          30.1818431260     A'        A'  (1)
   32    24           1.1695612577          31.8253802837     A'        A'  (1)
   33    48           1.3088993393          35.6169623017     A''       A'' (2)
   34    25           1.3222027468          35.9789664292     A'        A'  (1)
   35    26           1.3713782637          37.3171002944     A'        A'  (1)
   36    49           1.4138851217          38.4737707244     A''       A'' (2)
   37    27           1.7216291220          46.8479108341     A'        A'  (1)
   38    28           1.7614177872          47.9306154740     A'        A'  (1)
   39    50           1.8225682076          49.5946030337     A''       A'' (2)
   40    29           1.9414421099          52.8293264162     A'        A'  (1)
   41    51           1.9827030707          53.9520942559     A''       A'' (2)
   42    30           2.0223084148          55.0298104769     A'        A'  (1)
   43    31           2.1499705258          58.5036731788     A'        A'  (1)
   44    52           2.1936461629          59.6921477026     A''       A'' (2)
   45    53           2.2915425375          62.3560435277     A''       A'' (2)
   46    32           2.3640395356          64.3287871670     A'        A'  (1)
   47    33           2.6207759988          71.3149416073     A'        A'  (1)
   48    34           2.6598672274          72.3786680346     A'        A'  (1)
   49    35           3.0360826719          82.6160108934     A'        A'  (1)
   50    36           3.1918662778          86.8550983858     A'        A'  (1)
   51    54           3.8412964857         104.5269930373     A''       A'' (2)
   52    37           3.8608435954         105.0588969430     A'        A'  (1)
   53    55           3.9052749613         106.2679358937     A''       A'' (2)
   54    38           4.0865163047         111.1997636527     A'        A'  (1)
   55    39           4.3429495294         118.1776665536     A'        A'  (1)


  VSCF finished.

 @CHECKOUT-I, Total execution time (CPU/WALL):       33.00/       3.49 seconds.
--executable xvscf finished with status     0 in        3.55 seconds (walltime).
 --invoking executable--
/ddn/home1/r1621/maple/bin/tempQC/bin/cfour_v2devel_2015_06_18_g++_intel_2011.12.361/bin/xvtran
 @GETMEM-I,  Allocated    7629 MB of main memory.
  Partial RHF integral transformation
  The following   2 MOs will be dropped:
    1  2
  There are  53 active molecular orbitals.
  Transformation of IIII integrals :
  1 pass through the AO integral file was required.
      298632 AO integrals were read.
      109856 MO integrals were written to HF2.
  Transformation of IIJJ integrals :
  1 pass through the AO integral file was required.
      100384 AO integrals were read.
       32248 MO integrals were written to HF2.
  Transformation of IJIJ integrals :
  1 pass through the AO integral file was required.
      185478 AO integrals were read.
       60088 MO integrals were written to HF2.
  Summary of active molecular orbitals: 
------------------------------------------------------------------------
 
  Index      Eigenvalue    Symmetry    Index      Eigenvalue    Symmetry
------------------------------------------------------------------------
     1        -1.2282609        1        28         1.9414421        1
     2        -0.6366127        1        29         2.0223084        1
     3        -0.4482951        1        30         2.1499705        1
     4        -0.2459348        1        31         2.3640395        1
     5         0.0214278        1        32         2.6207760        1
     6        -0.3712441        2        33         2.6598672        1
     7         0.1591327        1        34         3.0360827        1
     8         0.2582662        1        35         3.1918663        1
     9         0.2842019        1        36         3.8608436        1
    10         0.3135389        1        37         4.0865163        1
    11         0.3542043        1        38         4.3429495        1
    12         0.3834922        1        39         0.2468134        2
    13         0.4916281        1        40         0.3824942        2
    14         0.5548775        1        41         0.4149299        2
    15         0.6301949        1        42         0.5666342        2
    16         0.7019097        1        43         0.7359696        2
    17         0.7491600        1        44         0.8183902        2
    18         0.8052332        1        45         1.0429062        2
    19         0.8396304        1        46         1.3088993        2
    20         0.9527129        1        47         1.4138851        2
    21         1.0691260        1        48         1.8225682        2
    22         1.1091624        1        49         1.9827031        2
    23         1.1695613        1        50         2.1936462        2
    24         1.3222027        1        51         2.2915425        2
    25         1.3713783        1        52         3.8412965        2
    26         1.7216291        1        53         3.9052750        2
    27         1.7614178        1
------------------------------------------------------------------------
 @CHECKOUT-I, Total execution time (CPU/WALL):       14.09/       1.65 seconds.
--executable xvtran finished with status     0 in        1.80 seconds (walltime).
 --invoking executable--
/ddn/home1/r1621/maple/bin/tempQC/bin/cfour_v2devel_2015_06_18_g++_intel_2011.12.361/bin/xintprc
 @GETMEM-I,  Allocated    7629 MB of main memory.
  @GMOIAA-I, Processing MO integrals for spin case AA.
  @GMOIAA-I, Generation of integral list completed.
                      TYPE                NUMBER
                      ----               --------
                      PPPP                     0
                      PPPH                164760
                      PPHH                 21178
                      PHPH                 12768
                      PHHH                  3335
                      HHHH                   151

                     TOTAL                202192

  @FORMT2-I, Second-order MP correlation energies:
            ------------------------------------------------
            E(SCF)                  =   -113.125551099690 a.u.
            E2(AA)                  =     -0.043353189623 a.u.
            E2(AB)                  =     -0.252246086877 a.u.
            E2(TOT)                 =     -0.338952466123 a.u.
            Total MP2 energy        =   -113.464503565812 a.u.
            ------------------------------------------------
   Largest T2 amplitudes for spin case AB:
       _       _                 _       _                 _       _
   i   j   a   b             i   j   a   b             i   j   a   b
-----------------------------------------------------------------------------
[  5   5   9   9]-0.05863 [  5   5   7   7]-0.05217 [  6   6  41  41]-0.03706
[  4   4  41  41]-0.03259 [  5   5   9   7] 0.02932 [  5   5   7   9] 0.02932
[  5   5  10  10]-0.02643 [  6   6  48  48]-0.02233 [  5   5  10   9] 0.02051
[  5   5   9  10] 0.02051 [  5   5  23  23]-0.02037 [  5   5  16  16]-0.01876
[  5   5   9   8]-0.01815 [  5   5   8   9]-0.01815 [  4   4  41  40] 0.01792
-----------------------------------------------------------------------------
   Norm of T2AB vector (    42074 symmetry allowed elements):  0.3186503457.
-----------------------------------------------------------------------------
 @CHECKOUT-I, Total execution time (CPU/WALL):        1.81/       0.43 seconds.
--executable xintprc finished with status     0 in        0.57 seconds (walltime).
  calling xvcc 
 --invoking executable--
/ddn/home1/r1621/maple/bin/tempQC/bin/cfour_v2devel_2015_06_18_g++_intel_2011.12.361/bin/xvcc
 @GETMEM-I,  Allocated    7629 MB of main memory.
   CC2 energy will be calculated.
   The total correlation energy is -0.338952466123 a.u.
  W(abef) AB contribution =  0.0000000000 a.u.
   The total correlation energy is -0.338626168013 a.u.
  Convergence information after     1 iterations: 
  Largest element of residual vector :  0.66459855E-01.
  Largest element of DIIS residual   :  0.66459855E-01.
  W(abef) AB contribution =  0.0000118299 a.u.
   The total correlation energy is -0.345105007826 a.u.
  Convergence information after     2 iterations: 
  Largest element of residual vector : -0.29200844E-01.
  Largest element of DIIS residual   :  0.26735261E-01.
  W(abef) AB contribution =  0.0000304110 a.u.
   The total correlation energy is -0.346176157188 a.u.
  Convergence information after     3 iterations: 
  Largest element of residual vector :  0.56385698E-01.
  Largest element of DIIS residual   :  0.30074902E-01.
  W(abef) AB contribution =  0.0000523053 a.u.
   The total correlation energy is -0.346842977501 a.u.
  Convergence information after     4 iterations: 
  Largest element of residual vector :  0.55384194E-01.
  Largest element of DIIS residual   :  0.29835831E-01.
  W(abef) AB contribution =  0.0000146358 a.u.
   The total correlation energy is -0.345640107293 a.u.
  Convergence information after     5 iterations: 
  Largest element of residual vector :  0.49884343E-01.
  Largest element of DIIS residual   : -0.17458801E-01.
  W(abef) AB contribution =  0.0011273345 a.u.
   The total correlation energy is -0.339745945412 a.u.
  Convergence information after     6 iterations: 
  Largest element of residual vector : -0.10527439E+00.
  Largest element of DIIS residual   : -0.24222424E-01.
  W(abef) AB contribution =  0.0000077435 a.u.
   The total correlation energy is -0.343738143384 a.u.
  Convergence information after     7 iterations: 
  Largest element of residual vector :  0.36623158E-01.
  Largest element of DIIS residual   : -0.60989605E-02.
  W(abef) AB contribution =  0.0012362403 a.u.
   The total correlation energy is -0.339574186893 a.u.
  Convergence information after     8 iterations: 
  Largest element of residual vector : -0.11487139E+00.
  Largest element of DIIS residual   :  0.11387286E-01.
  W(abef) AB contribution =  0.0019244810 a.u.
   The total correlation energy is -0.337630989845 a.u.
  Convergence information after     9 iterations: 
  Largest element of residual vector : -0.11764511E+00.
  Largest element of DIIS residual   :  0.12969536E-01.
  W(abef) AB contribution =  0.0006053427 a.u.
   The total correlation energy is -0.339554165914 a.u.
  Convergence information after    10 iterations: 
  Largest element of residual vector : -0.52671891E-01.
  Largest element of DIIS residual   : -0.96995368E-02.
  W(abef) AB contribution =  0.0023469484 a.u.
   The total correlation energy is -0.339815727600 a.u.
  Convergence information after    11 iterations: 
  Largest element of residual vector : -0.69476480E-01.
  Largest element of DIIS residual   : -0.51011347E-02.
  W(abef) AB contribution =  0.0031058375 a.u.
   The total correlation energy is -0.339770348392 a.u.
  Convergence information after    12 iterations: 
  Largest element of residual vector : -0.24055595E-01.
  Largest element of DIIS residual   : -0.32442426E-02.
  W(abef) AB contribution =  0.0037112902 a.u.
   The total correlation energy is -0.339848553354 a.u.
  Convergence information after    13 iterations: 
  Largest element of residual vector : -0.28506664E-02.
  Largest element of DIIS residual   : -0.28259635E-02.
  W(abef) AB contribution =  0.0038547310 a.u.
   The total correlation energy is -0.339708517372 a.u.
  Convergence information after    14 iterations: 
  Largest element of residual vector : -0.20036972E-02.
  Largest element of DIIS residual   : -0.11531417E-02.
  W(abef) AB contribution =  0.0039394600 a.u.
   The total correlation energy is -0.339649088042 a.u.
  Convergence information after    15 iterations: 
  Largest element of residual vector : -0.12581277E-02.
  Largest element of DIIS residual   : -0.89759087E-03.
  W(abef) AB contribution =  0.0040130962 a.u.
   The total correlation energy is -0.339668149099 a.u.
  Convergence information after    16 iterations: 
  Largest element of residual vector : -0.61077749E-03.
  Largest element of DIIS residual   : -0.34115780E-03.
  W(abef) AB contribution =  0.0040810469 a.u.
   The total correlation energy is -0.339688686082 a.u.
  Convergence information after    17 iterations: 
  Largest element of residual vector : -0.49601739E-03.
  Largest element of DIIS residual   : -0.50226926E-03.
  W(abef) AB contribution =  0.0041177129 a.u.
   The total correlation energy is -0.339702363975 a.u.
  Convergence information after    18 iterations: 
  Largest element of residual vector : -0.43553575E-03.
  Largest element of DIIS residual   : -0.38269020E-03.
  W(abef) AB contribution =  0.0041398848 a.u.
   The total correlation energy is -0.339693228918 a.u.
  Convergence information after    19 iterations: 
  Largest element of residual vector : -0.58979595E-03.
  Largest element of DIIS residual   : -0.24679673E-03.
  W(abef) AB contribution =  0.0041150121 a.u.
   The total correlation energy is -0.339707712327 a.u.
  Convergence information after    20 iterations: 
  Largest element of residual vector : -0.52655521E-03.
  Largest element of DIIS residual   : -0.29041578E-03.
  W(abef) AB contribution =  0.0040688982 a.u.
   The total correlation energy is -0.339727052276 a.u.
  Convergence information after    21 iterations: 
  Largest element of residual vector : -0.28379050E-03.
  Largest element of DIIS residual   : -0.12083225E-03.
  W(abef) AB contribution =  0.0040440627 a.u.
   The total correlation energy is -0.339751715670 a.u.
  Convergence information after    22 iterations: 
  Largest element of residual vector : -0.16754321E-03.
  Largest element of DIIS residual   :  0.97892990E-04.
  W(abef) AB contribution =  0.0040234534 a.u.
   The total correlation energy is -0.339760281805 a.u.
  Convergence information after    23 iterations: 
  Largest element of residual vector : -0.10026080E-03.
  Largest element of DIIS residual   :  0.69889116E-04.
  W(abef) AB contribution =  0.0040049171 a.u.
   The total correlation energy is -0.339764006413 a.u.
  Convergence information after    24 iterations: 
  Largest element of residual vector :  0.82676161E-04.
  Largest element of DIIS residual   :  0.43979238E-04.
  W(abef) AB contribution =  0.0039955581 a.u.
   The total correlation energy is -0.339762762147 a.u.
  Convergence information after    25 iterations: 
  Largest element of residual vector :  0.37297900E-04.
  Largest element of DIIS residual   :  0.17768372E-04.
  W(abef) AB contribution =  0.0039881507 a.u.
   The total correlation energy is -0.339763828484 a.u.
  Convergence information after    26 iterations: 
  Largest element of residual vector : -0.13622466E-04.
  Largest element of DIIS residual   : -0.88843504E-05.
  W(abef) AB contribution =  0.0039879782 a.u.
   The total correlation energy is -0.339765667274 a.u.
  Convergence information after    27 iterations: 
  Largest element of residual vector : -0.17528706E-04.
  Largest element of DIIS residual   : -0.50889265E-05.
  W(abef) AB contribution =  0.0039849565 a.u.
   The total correlation energy is -0.339766671479 a.u.
  Convergence information after    28 iterations: 
  Largest element of residual vector : -0.85776886E-05.
  Largest element of DIIS residual   : -0.46215862E-05.
  W(abef) AB contribution =  0.0039849196 a.u.
   The total correlation energy is -0.339767317504 a.u.
  Convergence information after    29 iterations: 
  Largest element of residual vector : -0.71038538E-05.
  Largest element of DIIS residual   : -0.26246275E-05.
  W(abef) AB contribution =  0.0039843416 a.u.
   The total correlation energy is -0.339767590546 a.u.
  Convergence information after    30 iterations: 
  Largest element of residual vector : -0.53577003E-05.
  Largest element of DIIS residual   : -0.20442214E-05.
  W(abef) AB contribution =  0.0039835503 a.u.
   The total correlation energy is -0.339767928941 a.u.
  Convergence information after    31 iterations: 
  Largest element of residual vector : -0.19810092E-05.
  Largest element of DIIS residual   : -0.74636426E-06.
  W(abef) AB contribution =  0.0039832327 a.u.
   The total correlation energy is -0.339768000903 a.u.
  Convergence information after    32 iterations: 
  Largest element of residual vector : -0.13489728E-05.
  Largest element of DIIS residual   : -0.36566892E-06.
  W(abef) AB contribution =  0.0039829703 a.u.
   The total correlation energy is -0.339768144005 a.u.
  Convergence information after    33 iterations: 
  Largest element of residual vector : -0.37227406E-06.
  Largest element of DIIS residual   : -0.29405764E-06.
  W(abef) AB contribution =  0.0039829998 a.u.
   The total correlation energy is -0.339768151071 a.u.
  Convergence information after    34 iterations: 
  Largest element of residual vector : -0.17422799E-06.
  Largest element of DIIS residual   : -0.14030695E-06.
  W(abef) AB contribution =  0.0039829982 a.u.
   The total correlation energy is -0.339768152719 a.u.
  Convergence information after    35 iterations: 
  Largest element of residual vector : -0.16131170E-06.
  Largest element of DIIS residual   : -0.79986437E-07.
  W(abef) AB contribution =  0.0039830186 a.u.
   The total correlation energy is -0.339768147299 a.u.
  Convergence information after    36 iterations: 
  Largest element of residual vector : -0.52385325E-07.
  Largest element of DIIS residual   : -0.35265764E-07.
  Amplitude equations converged in    36iterations.
   The total correlation energy is -0.339768140176 a.u.
   The CC iterations have converged.

   Largest T1 amplitudes for spin case AA:
   i       a                 i       a                 i       a    
-----------------------------------------------------------------------------
[  5       7    ]-0.37019 [  5      10    ] 0.08382 [  5       9    ]-0.05886
[  6      41    ]-0.04729 [  4       7    ] 0.04079 [  4      10    ]-0.03609
[  6      39    ]-0.02928 [  4      11    ] 0.01760 [  5      11    ]-0.01710
[  5      14    ]-0.01710 [  3      12    ]-0.01696 [  6      42    ]-0.01266
[  5      15    ]-0.01258 [  5      13    ] 0.01195 [  6      45    ] 0.01053
-----------------------------------------------------------------------------
   Norm of T1AA vector (      175 symmetry allowed elements):  0.3961349611.
-----------------------------------------------------------------------------
   Largest T2 amplitudes for spin case AB:
       _       _                 _       _                 _       _
   i   j   a   b             i   j   a   b             i   j   a   b
-----------------------------------------------------------------------------
[  5   5   9   9]-0.08129 [  5   5  10  10]-0.04728 [  6   6  41  41]-0.04522
[  5   5  10   9] 0.03656 [  5   5   9  10] 0.03656 [  5   5   9   7]-0.03195
[  5   5   7   9]-0.03195 [  4   4  41  41]-0.03178 [  5   5   7   7]-0.02989
[  5   5  10   7] 0.02851 [  5   5   7  10] 0.02851 [  5   5   9   8]-0.02460
[  5   5   8   9]-0.02460 [  5   4   9  10]-0.02357 [  4   5  10   9]-0.02357
-----------------------------------------------------------------------------
   Norm of T2AB vector (    42074 symmetry allowed elements):  0.3495095908.
-----------------------------------------------------------------------------
       Summary of iterative solution of CC equations 
      -----------------------------------------------------------
                       Correlation           Total
       Iteration         Energy              Energy
      -----------------------------------------------------------
            0        -0.338952466123    -113.464503565812  DIIS 
            1        -0.338626168013    -113.464177267703  DIIS 
            2        -0.345105007826    -113.470656107515  DIIS 
            3        -0.346176157188    -113.471727256877  DIIS 
            4        -0.346842977501    -113.472394077191  DIIS 
            5        -0.345640107293    -113.471191206982  DIIS 
            6        -0.339745945412    -113.465297045101  DIIS 
            7        -0.343738143384    -113.469289243073  DIIS 
            8        -0.339574186893    -113.465125286582  DIIS 
            9        -0.337630989845    -113.463182089535  DIIS 
           10        -0.339554165914    -113.465105265603  DIIS 
           11        -0.339815727600    -113.465366827290  DIIS 
           12        -0.339770348392    -113.465321448081  DIIS 
           13        -0.339848553354    -113.465399653043  DIIS 
           14        -0.339708517372    -113.465259617062  DIIS 
           15        -0.339649088042    -113.465200187731  DIIS 
           16        -0.339668149099    -113.465219248788  DIIS 
           17        -0.339688686082    -113.465239785772  DIIS 
           18        -0.339702363975    -113.465253463664  DIIS 
           19        -0.339693228918    -113.465244328607  DIIS 
           20        -0.339707712327    -113.465258812017  DIIS 
           21        -0.339727052276    -113.465278151965  DIIS 
           22        -0.339751715670    -113.465302815360  DIIS 
           23        -0.339760281805    -113.465311381494  DIIS 
           24        -0.339764006413    -113.465315106102  DIIS 
           25        -0.339762762147    -113.465313861836  DIIS 
           26        -0.339763828484    -113.465314928174  DIIS 
           27        -0.339765667274    -113.465316766963  DIIS 
           28        -0.339766671479    -113.465317771168  DIIS 
           29        -0.339767317504    -113.465318417194  DIIS 
           30        -0.339767590546    -113.465318690235  DIIS 
           31        -0.339767928941    -113.465319028631  DIIS 
           32        -0.339768000903    -113.465319100593  DIIS 
           33        -0.339768144005    -113.465319243695  DIIS 
           34        -0.339768151071    -113.465319250761  DIIS 
           35        -0.339768152719    -113.465319252408  DIIS 
           36        -0.339768140176    -113.465319239865  DIIS 
      -----------------------------------------------------------
      A miracle has come to pass. The CC iterations have converged.
      The reference energy is      -113.12555109968957 a.u.
      The correlation energy is      -0.33976814017586 a.u.
      The total energy is          -113.46531923986544 a.u.
 @CHECKOUT-I, Total execution time (CPU/WALL):      286.29/      28.45 seconds.
--executable xvcc finished with status     0 in       28.54 seconds (walltime).
 --invoking executable--
/ddn/home1/r1621/maple/bin/tempQC/bin/cfour_v2devel_2015_06_18_g++_intel_2011.12.361/bin/xlambda
 @GETMEM-I,  Allocated    7629 MB of main memory.
  Hbar is calculated for a CC2 wave function.
  
  @hbarijka: xnorm(                     1 ) =   0.448015714029766     
  
  @hbarijka: xnorm(                     4 ) =    1.02629738818013     
  Calculation of Hbar completed.
 @CHECKOUT-I, Total execution time (CPU/WALL):       12.50/       1.48 seconds.
--executable xlambda finished with status     0 in        1.65 seconds (walltime).
 --invoking executable--
/ddn/home1/r1621/maple/bin/tempQC/bin/cfour_v2devel_2015_06_18_g++_intel_2011.12.361/bin/xvee
 @GETMEM-I,  Allocated    7629 MB of main memory.
  EOMEE-CC2 excitation energies will be evaluated.
  @SETMET-I, VPROP property integrals are used.
  @SETMET-I, A total of   2 final states will be studied.
  Summary of active alpha molecular orbitals:
------------------------------------------------------------------------------
Orbital      Sym   Eigenvalue  <xx>     <yy>     <zz>     <xy>     <xz>     <yz>
        SCF
  #  position
------------------------------------------------------------------------------
   1      3    1      -1.2283   0.000    0.000    0.000    0.000    0.000    0.000
   2      4    1      -0.6366   0.000    0.000    0.000    0.000    0.000    0.000
   3      5    1      -0.4483   0.000    0.000    0.000    0.000    0.000    0.000
   4      7    1      -0.2459   0.000    0.000    0.000    0.000    0.000    0.000
   5      8    1       0.0214   0.000    0.000    0.000    0.000    0.000    0.000
   6      6    2      -0.3712   0.000    0.000    0.000    0.000    0.000    0.000
   7      9    1       0.1591   0.000    0.000    0.000    0.000    0.000    0.000
   8     11    1       0.2583   0.000    0.000    0.000    0.000    0.000    0.000
   9     12    1       0.2842   0.000    0.000    0.000    0.000    0.000    0.000
  10     13    1       0.3135   0.000    0.000    0.000    0.000    0.000    0.000
  11     14    1       0.3542   0.000    0.000    0.000    0.000    0.000    0.000
  12     16    1       0.3835   0.000    0.000    0.000    0.000    0.000    0.000
  13     18    1       0.4916   0.000    0.000    0.000    0.000    0.000    0.000
  14     19    1       0.5549   0.000    0.000    0.000    0.000    0.000    0.000
  15     21    1       0.6302   0.000    0.000    0.000    0.000    0.000    0.000
  16     22    1       0.7019   0.000    0.000    0.000    0.000    0.000    0.000
  17     24    1       0.7492   0.000    0.000    0.000    0.000    0.000    0.000
  18     25    1       0.8052   0.000    0.000    0.000    0.000    0.000    0.000
  19     27    1       0.8396   0.000    0.000    0.000    0.000    0.000    0.000
  20     28    1       0.9527   0.000    0.000    0.000    0.000    0.000    0.000
  21     30    1       1.0691   0.000    0.000    0.000    0.000    0.000    0.000
  22     31    1       1.1092   0.000    0.000    0.000    0.000    0.000    0.000
  23     32    1       1.1696   0.000    0.000    0.000    0.000    0.000    0.000
  24     34    1       1.3222   0.000    0.000    0.000    0.000    0.000    0.000
  25     35    1       1.3714   0.000    0.000    0.000    0.000    0.000    0.000
  26     37    1       1.7216   0.000    0.000    0.000    0.000    0.000    0.000
  27     38    1       1.7614   0.000    0.000    0.000    0.000    0.000    0.000
  28     40    1       1.9414   0.000    0.000    0.000    0.000    0.000    0.000
  29     42    1       2.0223   0.000    0.000    0.000    0.000    0.000    0.000
  30     43    1       2.1500   0.000    0.000    0.000    0.000    0.000    0.000
  31     46    1       2.3640   0.000    0.000    0.000    0.000    0.000    0.000
  32     47    1       2.6208   0.000    0.000    0.000    0.000    0.000    0.000
  33     48    1       2.6599   0.000    0.000    0.000    0.000    0.000    0.000
  34     49    1       3.0361   0.000    0.000    0.000    0.000    0.000    0.000
  35     50    1       3.1919   0.000    0.000    0.000    0.000    0.000    0.000
  36     52    1       3.8608   0.000    0.000    0.000    0.000    0.000    0.000
  37     54    1       4.0865   0.000    0.000    0.000    0.000    0.000    0.000
  38     55    1       4.3429   0.000    0.000    0.000    0.000    0.000    0.000
  39     10    2       0.2468   0.000    0.000    0.000    0.000    0.000    0.000
  40     15    2       0.3825   0.000    0.000    0.000    0.000    0.000    0.000
  41     17    2       0.4149   0.000    0.000    0.000    0.000    0.000    0.000
  42     20    2       0.5666   0.000    0.000    0.000    0.000    0.000    0.000
  43     23    2       0.7360   0.000    0.000    0.000    0.000    0.000    0.000
  44     26    2       0.8184   0.000    0.000    0.000    0.000    0.000    0.000
  45     29    2       1.0429   0.000    0.000    0.000    0.000    0.000    0.000
  46     33    2       1.3089   0.000    0.000    0.000    0.000    0.000    0.000
  47     36    2       1.4139   0.000    0.000    0.000    0.000    0.000    0.000
  48     39    2       1.8226   0.000    0.000    0.000    0.000    0.000    0.000
  49     41    2       1.9827   0.000    0.000    0.000    0.000    0.000    0.000
  50     44    2       2.1936   0.000    0.000    0.000    0.000    0.000    0.000
  51     45    2       2.2915   0.000    0.000    0.000    0.000    0.000    0.000
  52     51    2       3.8413   0.000    0.000    0.000    0.000    0.000    0.000
  53     53    2       3.9053   0.000    0.000    0.000    0.000    0.000    0.000
------------------------------------------------------------------------------
  @DRVTDA-I, Roots obtained by Davidson method.
__________________________________________________________________________
    Tamm-Dancoff (CIS) Excitation Energies and Transition Moments

                Excitation         Transition Dipole         Oscillator
 Root  Symmetry  Energy         x           y           z     Strength
__________________________________________________________________________
   1       1    0.01480      0.0000      0.0000      0.0000  .00000000D+00
__________________________________________________________________________
 
__________________________________________________________________________
  TDA excitation ergy:             0.014796934935 a.u.    0.4026 eV
  Total TDA electronic energy:  -113.110754164755 a.u.
 
  Dominant contributions: 
  SCF eigenvalue ordering used in list below. 
--------------------------------------------------------------------------------
    I    j    A    b
--------------------------------------------------------------------------------
    8    0    9    0  -0.9536947507 AA  
    8    0   13    0   0.2121290431 AA  
    8    0   14    0  -0.1183815870 AA  
    8    0   11    0   0.1174056468 AA  
    8    0   16    0   0.0569104861 AA  
    8    0   12    0  -0.0554773712 AA  
    8    0   19    0  -0.0440940029 AA  
    7    0    9    0   0.0433468652 AA  
    7    0   13    0  -0.0391664486 AA  
    6    0   15    0  -0.0256151971 AA  
    8    0   18    0  -0.0245213049 AA  
    7    0   14    0   0.0223275140 AA  
    8    0   22    0   0.0213125228 AA  
    8    0   21    0  -0.0179645979 AA  
    6    0   17    0   0.0157203642 AA  
    7    0   16    0  -0.0141107128 AA  
    5    0   16    0  -0.0140823394 AA  
    5    0   11    0   0.0136791465 AA  
    8    0   25    0   0.0128887734 AA  
    5    0   13    0  -0.0124532857 AA  
--------------------------------------------------------------------------------
   1       2    0.00959      0.0000      0.0000      0.0000  .00000000D+00
__________________________________________________________________________
 
__________________________________________________________________________
  TDA excitation ergy:             0.009587697360 a.u.    0.2609 eV
  Total TDA electronic energy:  -113.115963402330 a.u.
 
  Dominant contributions: 
  SCF eigenvalue ordering used in list below. 
--------------------------------------------------------------------------------
    I    j    A    b
--------------------------------------------------------------------------------
    8    0   10    0  -0.7137716123 AA  
    8    0   17    0  -0.5976291963 AA  
    8    0   15    0   0.3488712531 AA  
    8    0   29    0   0.0671170034 AA  
    8    0   20    0  -0.0509815544 AA  
    8    0   36    0  -0.0285416131 AA  
    5    0   17    0   0.0267141812 AA  
    5    0   15    0  -0.0245104849 AA  
    8    0   26    0  -0.0224528279 AA  
    7    0   17    0   0.0173115554 AA  
    5    0   10    0   0.0148662048 AA  
    4    0   17    0  -0.0141722780 AA  
    8    0   23    0  -0.0129482964 AA  
    5    0   29    0  -0.0117278595 AA  
    7    0   10    0   0.0113294323 AA  
    8    0   33    0  -0.0104027467 AA  
    5    0   39    0  -0.0096161045 AA  
    5    0   36    0   0.0088076010 AA  
    5    0   26    0  -0.0086904761 AA  
    4    0   15    0   0.0072674381 AA  
--------------------------------------------------------------------------------
__________________________________________________________________________
  @DOEOMEE-I, Excitation energies computed by the EOMEE-CC2/CC2-LR method.
  @DOEOMEE-I, right-hand eigenvectors will be computed.
  Beginning symmetry block   1.   1 roots requested.
  @DOEOMEE-I, Matrix dimension for diagonalization:    42249
  Creating initial guess for root
________________________________________________________________________
            Subspace          Eigenvalue           
 Iteration  Dimension   (a.u.)         (eV)       Overlap      Residual
________________________________________________________________________
  @NEWGES-I, Using TDA initial guess.
  warningwarningwarning :  dangerdangerdanger 
  1   1  0.4763178920D-01  0.1296126898D+01  0.0000000000D+00  0.5895928592D+00
  warningwarningwarning :  dangerdangerdanger 
  2   2 -0.2713101109D-01 -0.7382723562D+00  0.9207180753D+00  0.2065444276D+00
  warningwarningwarning :  dangerdangerdanger 
  3   3 -0.2614098704D-01 -0.7113324318D+00  0.9924873837D+00  0.2914259102D-01
  warningwarningwarning :  dangerdangerdanger 
  4   4 -0.2736159414D-01 -0.7445468400D+00  0.9989384001D+00  0.2492127349D-01
  warningwarningwarning :  dangerdangerdanger 
  5   5 -0.2749065114D-01 -0.7480586595D+00  0.9995900752D+00  0.7244334228D-02
  warningwarningwarning :  dangerdangerdanger 
  6   6 -0.2784511730D-01 -0.7577041743D+00  0.9999607671D+00  0.2656175978D-02
  warningwarningwarning :  dangerdangerdanger 
  7   7 -0.2785371225D-01 -0.7579380548D+00  0.9999945816D+00  0.1385424713D-02
  warningwarningwarning :  dangerdangerdanger 
  8   8 -0.2784837062D-01 -0.7577927017D+00  0.9999977348D+00  0.3799319228D-03
  warningwarningwarning :  dangerdangerdanger 
  9   9 -0.2784317595D-01 -0.7576513475D+00  0.9999999125D+00  0.1947041157D-03
  warningwarningwarning :  dangerdangerdanger 
  L-O-C-K-I-N-G O-N R-O-O-T 
 10  10 -0.2784309683D-01 -0.7576491947D+00  0.9999999616D+00  0.5572432281D-04
  warningwarningwarning :  dangerdangerdanger 
 11  11 -0.2784356736D-01 -0.7576619983D+00  0.9999999976D+00  0.2529205477D-04
  warningwarningwarning :  dangerdangerdanger 
 12  12 -0.2784391578D-01 -0.7576714794D+00  0.9999999994D+00  0.8853169122D-05
  Converged eigenvalue:  -2.784391578175017E-002  a.u.
   Total EOMEE-CC2 electronic energy     -113.493163155647181 a.u.
  Converged eigenvector 
  SCF eigenvalue ordering used in list below. 
--------------------------------------------------------------------------------
    I    j    A    b
--------------------------------------------------------------------------------
    8    0    9    0   0.6267019772 AA  
    8    8    9    9   0.1697061736 ABAB
    8    8   12    9   0.1219694277 ABAB
    8    8    9   12   0.1219694277 ABAB
    8    0   14    0   0.1040550133 AA  
    8    0   13    0  -0.1037474709 AA  
    8    0   11    0  -0.0809504283 AA  
    8    8   13    9  -0.0775654155 ABAB
    8    8    9   13  -0.0775654155 ABAB
    8    0   12    0   0.0663775124 AA  
    8    8   11    9   0.0469854951 ABAB
    8    8    9   11   0.0469854951 ABAB
    8    8   18    9  -0.0466826467 ABAB
    8    8    9   18  -0.0466826467 ABAB
    8    8   14    9  -0.0418175764 ABAB
    8    8    9   14  -0.0418175764 ABAB
    8    7    9   13   0.0402953444 ABAB
    7    8   13    9   0.0402953444 ABAB
    7    0    9    0  -0.0379123211 AA  
    8    8   21    9   0.0357424410 ABAB
    8    8    9   21   0.0357424410 ABAB
    8    7    9    9  -0.0356827251 ABAB
    7    8    9    9  -0.0356827251 ABAB
    8    8   12   12   0.0344743243 ABAB
    8    8   13   13   0.0323979599 ABAB
    6    8   15    9   0.0298093054 ABAB
    8    6    9   15   0.0298093054 ABAB
    8    8   13   12  -0.0246535740 ABAB
    8    8   12   13  -0.0246535740 ABAB
    7    0   13    0   0.0204571551 AA  
--------------------------------------------------------------------------------

  Eigenvector is saved on CCRE_1_1  

  Solution of   1 roots required   12 iterations.
  @DOEOMEE-I, right-hand eigenvectors will be computed.
  Beginning symmetry block   2.   1 roots requested.
  @DOEOMEE-I, Matrix dimension for diagonalization:    37557
  Creating initial guess for root
________________________________________________________________________
            Subspace          Eigenvalue           
 Iteration  Dimension   (a.u.)         (eV)       Overlap      Residual
________________________________________________________________________
  @NEWGES-I, Using TDA initial guess.
  warningwarningwarning :  dangerdangerdanger 
  1   1  0.8589443551D-01  0.2337306453D+01  0.0000000000D+00  0.4599656612D+00
  warningwarningwarning :  dangerdangerdanger 
  2   2  0.2309536906D-01  0.6284569519D+00  0.9411611649D+00  0.3099918145D+00
  warningwarningwarning :  dangerdangerdanger 
  3   3  0.1532835868D-01  0.4171058513D+00  0.9870780103D+00  0.2590992323D-01
  warningwarningwarning :  dangerdangerdanger 
  4   4  0.1511721811D-01  0.4113604242D+00  0.9995854039D+00  0.1466588584D-01
  warningwarningwarning :  dangerdangerdanger 
  5   5  0.1491673943D-01  0.4059051220D+00  0.9998360949D+00  0.4906321875D-02
  warningwarningwarning :  dangerdangerdanger 
  6   6  0.1486535518D-01  0.4045068853D+00  0.9999889634D+00  0.1543579057D-02
  warningwarningwarning :  dangerdangerdanger 
  7   7  0.1485031748D-01  0.4040976889D+00  0.9999984871D+00  0.5972959966D-03
  warningwarningwarning :  dangerdangerdanger 
  L-O-C-K-I-N-G O-N R-O-O-T 
  8   8  0.1485147396D-01  0.4041291582D+00  0.9999998419D+00  0.1690214780D-03
  warningwarningwarning :  dangerdangerdanger 
  9   9  0.1485286924D-01  0.4041671256D+00  0.9999999591D+00  0.9550139077D-04
  warningwarningwarning :  dangerdangerdanger 
 10  10  0.1485313142D-01  0.4041742599D+00  0.9999999908D+00  0.4332778187D-04
  warningwarningwarning :  dangerdangerdanger 
 11  11  0.1485273833D-01  0.4041635635D+00  0.9999999974D+00  0.1660458652D-04
  warningwarningwarning :  dangerdangerdanger 
 12  12  0.1485272183D-01  0.4041631144D+00  0.9999999995D+00  0.6202232417D-05
  Converged eigenvalue:   1.485272182750784E-002  a.u.
   Total EOMEE-CC2 electronic energy     -113.450466518037928 a.u.
  Converged eigenvector 
  SCF eigenvalue ordering used in list below. 
--------------------------------------------------------------------------------
    I    j    A    b
--------------------------------------------------------------------------------
    8    0   10    0  -0.5597048109 AA  
    8    0   17    0  -0.3415880733 AA  
    8    0   15    0   0.1917127164 AA  
    8    8   10   12  -0.0722326053 ABAB
    8    8   12   10  -0.0722326053 ABAB
    8    8   10   13   0.0451459154 ABAB
    8    8   13   10   0.0451459154 ABAB
    8    0   29    0   0.0408034706 AA  
    8    8   10    9  -0.0383542394 ABAB
    8    8    9   10  -0.0383542394 ABAB
    8    8   10   11  -0.0269762733 ABAB
    8    8   11   10  -0.0269762733 ABAB
    8    0   20    0  -0.0252667328 AA  
    8    7   10   13  -0.0243422547 ABAB
    7    8   13   10  -0.0243422547 ABAB
    8    8   10   18   0.0233671753 ABAB
    8    8   18   10   0.0233671753 ABAB
    7    0   10    0   0.0218497273 AA  
    8    8   17   12   0.0212930680 ABAB
    8    8   12   17   0.0212930680 ABAB
    8    0   36    0  -0.0172422520 AA  
    8    0   26    0  -0.0172252585 AA  
    7    0   17    0   0.0163836881 AA  
    6    5   17   10  -0.0161100489 ABAB
    5    6   10   17  -0.0161100489 ABAB
    8    8   10   32   0.0151280241 ABAB
    8    8   32   10   0.0151280241 ABAB
    8    8   17   13  -0.0147098332 ABAB
    8    8   13   17  -0.0147098332 ABAB
    8    7   24   17  -0.0143727772 ABAB
--------------------------------------------------------------------------------

  Eigenvector is saved on CCRE_2_1  

  Solution of   1 roots required   12 iterations.
 @CHECKOUT-I, Total execution time (CPU/WALL):      209.71/      19.62 seconds.
--executable xvee finished with status     0 in       19.73 seconds (walltime).
  The final electronic energy is      -113.450466518037928 a.u. 
  This computation required                           57.71 seconds (walltime).
--Timing info--
510.642u 56.860s 0:57.71 983.3% 0+0k 32+157000io 0pf+0w
 
