 Entering Gaussian System, Link 0=/usr/local/apps//g09/g09
 Input=ES.com
 Output=ES.out
 Initial command:
 /usr/local/apps//g09/l1.exe "/tmp/bnp.467246.sequoia/Gau-26525.inp" -scrdir="/tmp/bnp.467246.sequoia/"
 Entering Link 1 = /usr/local/apps//g09/l1.exe PID=     26526.
  
 Copyright (c) 1988,1990,1992,1993,1995,1998,2003,2009,2013,
            Gaussian, Inc.  All Rights Reserved.
  
 This is part of the Gaussian(R) 09 program.  It is based on
 the Gaussian(R) 03 system (copyright 2003, Gaussian, Inc.),
 the Gaussian(R) 98 system (copyright 1998, Gaussian, Inc.),
 the Gaussian(R) 94 system (copyright 1995, Gaussian, Inc.),
 the Gaussian 92(TM) system (copyright 1992, Gaussian, Inc.),
 the Gaussian 90(TM) system (copyright 1990, Gaussian, Inc.),
 the Gaussian 88(TM) system (copyright 1988, Gaussian, Inc.),
 the Gaussian 86(TM) system (copyright 1986, Carnegie Mellon
 University), and the Gaussian 82(TM) system (copyright 1983,
 Carnegie Mellon University). Gaussian is a federally registered
 trademark of Gaussian, Inc.
  
 This software contains proprietary and confidential information,
 including trade secrets, belonging to Gaussian, Inc.
  
 This software is provided under written license and may be
 used, copied, transmitted, or stored only in accord with that
 written license.
  
 The following legend is applicable only to US Government
 contracts under FAR:
  
                    RESTRICTED RIGHTS LEGEND
  
 Use, reproduction and disclosure by the US Government is
 subject to restrictions as set forth in subparagraphs (a)
 and (c) of the Commercial Computer Software - Restricted
 Rights clause in FAR 52.227-19.
  
 Gaussian, Inc.
 340 Quinnipiac St., Bldg. 40, Wallingford CT 06492
  
  
 ---------------------------------------------------------------
 Warning -- This program may not be used in any manner that
 competes with the business of Gaussian, Inc. or will provide
 assistance to any competitor of Gaussian, Inc.  The licensee
 of this program is prohibited from giving any competitor of
 Gaussian, Inc. access to this program.  By using this program,
 the user acknowledges that Gaussian, Inc. is engaged in the
 business of creating and licensing software in the field of
 computational chemistry and represents and warrants to the
 licensee that it is not a competitor of Gaussian, Inc. and that
 it will not use this program in any manner prohibited above.
 ---------------------------------------------------------------
  

 Cite this work as:
 Gaussian 09, Revision D.01,
 M. J. Frisch, G. W. Trucks, H. B. Schlegel, G. E. Scuseria, 
 M. A. Robb, J. R. Cheeseman, G. Scalmani, V. Barone, B. Mennucci, 
 G. A. Petersson, H. Nakatsuji, M. Caricato, X. Li, H. P. Hratchian, 
 A. F. Izmaylov, J. Bloino, G. Zheng, J. L. Sonnenberg, M. Hada, 
 M. Ehara, K. Toyota, R. Fukuda, J. Hasegawa, M. Ishida, T. Nakajima, 
 Y. Honda, O. Kitao, H. Nakai, T. Vreven, J. A. Montgomery, Jr., 
 J. E. Peralta, F. Ogliaro, M. Bearpark, J. J. Heyd, E. Brothers, 
 K. N. Kudin, V. N. Staroverov, T. Keith, R. Kobayashi, J. Normand, 
 K. Raghavachari, A. Rendell, J. C. Burant, S. S. Iyengar, J. Tomasi, 
 M. Cossi, N. Rega, J. M. Millam, M. Klene, J. E. Knox, J. B. Cross, 
 V. Bakken, C. Adamo, J. Jaramillo, R. Gomperts, R. E. Stratmann, 
 O. Yazyev, A. J. Austin, R. Cammi, C. Pomelli, J. W. Ochterski, 
 R. L. Martin, K. Morokuma, V. G. Zakrzewski, G. A. Voth, 
 P. Salvador, J. J. Dannenberg, S. Dapprich, A. D. Daniels, 
 O. Farkas, J. B. Foresman, J. V. Ortiz, J. Cioslowski, 
 and D. J. Fox, Gaussian, Inc., Wallingford CT, 2013.
 
 ******************************************
 Gaussian 09:  ES64L-G09RevD.01 24-Apr-2013
                17-May-2021 
 ******************************************
 %mem=8gb
 -----------------------------------
 #N TD(NStates=10) B3lYP/6-311G(d,p)
 -----------------------------------
 1/38=1/1;
 2/12=2,17=6,18=5,40=1/2;
 3/5=4,6=6,7=101,11=9,16=1,25=1,30=1,74=-5/1,2,8,3;
 4//1;
 5/5=2,38=5/2;
 8/6=1,10=2,108=10/1;
 9/41=10,42=1,70=2/14;
 6/7=2,8=2,9=2,10=2/1;
 99/5=1,9=1/99;
 ----
 Name
 ----
 Symbolic Z-matrix:
 Charge =  0 Multiplicity = 1
 6                    -0.01235  -2.98003  -0.40771 
 6                     1.18184  -2.04544  -0.2224 
 6                     0.7522   -0.74417   0.01821 
 6                    -0.67895  -0.71242   0.01896 
 16                   -1.95265   0.4361    0.23461 
 6                    -3.16699  -0.82263  -0.0242 
 6                    -4.59021  -0.50427   0.02373 
 6                    -5.07759   0.78562  -0.24998 
 6                    -6.43259   1.07238  -0.21459 
 6                    -7.36993   0.07578   0.10204 
 7                    -8.75079   0.361     0.13902 
 6                    -9.21415   1.62547   0.60434 
 6                    -10.21145   2.31508  -0.09662 
 1                    -10.62152   1.88363  -1.00162 
 6                    -10.67357   3.54236   0.36812 
 6                    -10.14021   4.10744   1.52502 
 6                    -9.14302   3.42607   2.22086 
 6                    -8.6871    2.19048   1.77293 
 1                    -7.92224   1.65803   2.32522 
 1                    -8.72584   3.85059   3.12718 
 1                    -10.49777   5.06654   1.8808 
 1                    -11.44616   4.06426  -0.18537 
 6                    -9.69748  -0.61033  -0.29679 
 6                    -9.49194  -1.32037  -1.4869 
 6                    -10.41922  -2.26866  -1.90651 
 6                    -11.57083  -2.51117  -1.15972 
 6                    -11.78298  -1.79823   0.01894 
 6                    -10.8526  -0.86017   0.45489 
 1                    -11.01624  -0.31451   1.37616 
 1                    -12.67264  -1.98015   0.61143 
 1                    -12.29496  -3.24518  -1.49316 
 1                    -10.24675  -2.80939  -2.83043 
 1                    -8.6057   -1.12446  -2.07824 
 6                    -6.89213  -1.21538   0.3838 
 6                    -5.53667  -1.49468   0.34425 
 1                    -5.20109  -2.49162   0.60484 
 1                    -7.59312  -1.99619   0.65067 
 1                    -6.77496   2.07245  -0.4483 
 1                    -4.38668   1.57273  -0.5311 
 6                    -2.56663  -2.05029  -0.2466 
 6                    -1.15979  -1.98928  -0.22078 
 1                    -3.14131  -2.94363  -0.45166 
 16                    2.06189   0.35653   0.22066 
 6                     3.23193  -0.9515   -0.03735 
 6                     2.57535  -2.16154  -0.25304 
 1                     3.1151   -3.07979  -0.44723 
 6                     4.64038  -0.71741   0.02324 
 16                    5.73333  -2.03408   0.34905 
 6                     7.18193  -1.01934   0.26228 
 6                     6.7836    0.29513   0.01641 
 6                     5.37104   0.46985  -0.13337 
 6                     5.02508   1.80127  -0.51772 
 6                     6.1197    2.59537  -0.66224 
 16                    7.64723   1.77551  -0.31511 
 6                     6.06901   4.01707  -1.05397 
 8                     5.04965   4.62232  -1.28589 
 8                     7.30361   4.55105  -1.12162 
 6                     7.37038   5.94274  -1.48322 
 1                     6.94443   6.09741  -2.47558 
 1                     6.82381   6.54839  -0.75923 
 1                     8.42818   6.19311  -1.47407 
 1                     4.02736   2.17206  -0.70061 
 6                     8.43262  -1.68148   0.37805 
 6                     9.67609  -1.20589   0.71315 
 6                     9.88815   0.08673   1.26191 
 7                     10.05322   1.12754   1.73877 
 6                     10.87948  -2.09716   0.71829 
 8                     11.84675  -1.90077   1.39787 
 8                     10.81648  -3.19271  -0.09447 
 1                     10.13273  -3.07114  -0.76297 
 1                     8.37965  -2.75469   0.20737 
 6                    -0.02792  -3.60117  -1.82105 
 1                    -0.00796  -2.82636  -2.5899 
 1                     0.83921  -4.25157  -1.96451 
 1                    -0.92874  -4.20399  -1.96397 
 6                    -0.04044  -4.08516   0.66982 
 1                    -0.02589  -3.65535   1.6733 
 1                    -0.94352  -4.69321   0.56946 
 1                     0.82449  -4.74597   0.56577 
 
 Stoichiometry    C41H28N2O4S4
 Framework group  C1[X(C41H28N2O4S4)]
 Deg. of freedom   231
 Full point group                 C1      NOp   1
 Largest Abelian subgroup         C1      NOp   1
 Largest concise Abelian subgroup C1      NOp   1
                         Standard orientation:                         
 ---------------------------------------------------------------------
 Center     Atomic      Atomic             Coordinates (Angstroms)
 Number     Number       Type             X           Y           Z
 ---------------------------------------------------------------------
      1          6           0       -0.012345   -2.980026   -0.407714
      2          6           0        1.181844   -2.045438   -0.222401
      3          6           0        0.752200   -0.744172    0.018210
      4          6           0       -0.678945   -0.712420    0.018957
      5         16           0       -1.952649    0.436098    0.234611
      6          6           0       -3.166989   -0.822632   -0.024199
      7          6           0       -4.590214   -0.504269    0.023730
      8          6           0       -5.077595    0.785619   -0.249982
      9          6           0       -6.432593    1.072378   -0.214590
     10          6           0       -7.369931    0.075781    0.102040
     11          7           0       -8.750787    0.360996    0.139017
     12          6           0       -9.214154    1.625471    0.604336
     13          6           0      -10.211451    2.315082   -0.096618
     14          1           0      -10.621524    1.883625   -1.001624
     15          6           0      -10.673568    3.542360    0.368124
     16          6           0      -10.140206    4.107439    1.525024
     17          6           0       -9.143025    3.426075    2.220855
     18          6           0       -8.687099    2.190479    1.772925
     19          1           0       -7.922238    1.658029    2.325222
     20          1           0       -8.725837    3.850586    3.127182
     21          1           0      -10.497770    5.066545    1.880804
     22          1           0      -11.446160    4.064263   -0.185371
     23          6           0       -9.697475   -0.610328   -0.296792
     24          6           0       -9.491944   -1.320371   -1.486903
     25          6           0      -10.419217   -2.268662   -1.906510
     26          6           0      -11.570826   -2.511165   -1.159718
     27          6           0      -11.782979   -1.798229    0.018937
     28          6           0      -10.852595   -0.860168    0.454890
     29          1           0      -11.016238   -0.314505    1.376158
     30          1           0      -12.672641   -1.980152    0.611433
     31          1           0      -12.294962   -3.245179   -1.493156
     32          1           0      -10.246749   -2.809387   -2.830429
     33          1           0       -8.605701   -1.124463   -2.078241
     34          6           0       -6.892132   -1.215381    0.383799
     35          6           0       -5.536667   -1.494682    0.344250
     36          1           0       -5.201094   -2.491617    0.604837
     37          1           0       -7.593124   -1.996191    0.650665
     38          1           0       -6.774959    2.072453   -0.448304
     39          1           0       -4.386677    1.572727   -0.531103
     40          6           0       -2.566632   -2.050285   -0.246603
     41          6           0       -1.159785   -1.989277   -0.220778
     42          1           0       -3.141310   -2.943633   -0.451656
     43         16           0        2.061887    0.356529    0.220661
     44          6           0        3.231933   -0.951498   -0.037351
     45          6           0        2.575347   -2.161542   -0.253040
     46          1           0        3.115099   -3.079791   -0.447226
     47          6           0        4.640379   -0.717411    0.023240
     48         16           0        5.733327   -2.034076    0.349049
     49          6           0        7.181931   -1.019341    0.262279
     50          6           0        6.783600    0.295128    0.016413
     51          6           0        5.371044    0.469850   -0.133365
     52          6           0        5.025084    1.801268   -0.517720
     53          6           0        6.119705    2.595367   -0.662240
     54         16           0        7.647231    1.775514   -0.315112
     55          6           0        6.069008    4.017068   -1.053967
     56          8           0        5.049654    4.622320   -1.285892
     57          8           0        7.303607    4.551046   -1.121623
     58          6           0        7.370376    5.942741   -1.483219
     59          1           0        6.944427    6.097414   -2.475575
     60          1           0        6.823812    6.548393   -0.759226
     61          1           0        8.428176    6.193112   -1.474066
     62          1           0        4.027359    2.172062   -0.700610
     63          6           0        8.432625   -1.681481    0.378047
     64          6           0        9.676085   -1.205887    0.713146
     65          6           0        9.888149    0.086727    1.261912
     66          7           0       10.053217    1.127542    1.738771
     67          6           0       10.879484   -2.097164    0.718285
     68          8           0       11.846749   -1.900768    1.397866
     69          8           0       10.816483   -3.192706   -0.094466
     70          1           0       10.132726   -3.071141   -0.762969
     71          1           0        8.379649   -2.754691    0.207370
     72          6           0       -0.027915   -3.601173   -1.821045
     73          1           0       -0.007959   -2.826361   -2.589895
     74          1           0        0.839207   -4.251575   -1.964513
     75          1           0       -0.928742   -4.203986   -1.963969
     76          6           0       -0.040437   -4.085156    0.669821
     77          1           0       -0.025893   -3.655350    1.673304
     78          1           0       -0.943515   -4.693214    0.569463
     79          1           0        0.824494   -4.745968    0.565774
 ---------------------------------------------------------------------
 Rotational constants (GHZ):      0.1106486      0.0127933      0.0117637
 Standard basis: 6-311G(d,p) (5D, 7F)
 There are  1169 symmetry adapted cartesian basis functions of A   symmetry.
 There are  1118 symmetry adapted basis functions of A   symmetry.
  1118 basis functions,  1912 primitive gaussians,  1169 cartesian basis functions
   192 alpha electrons      192 beta electrons
       nuclear repulsion energy      6387.6313192820 Hartrees.
 NAtoms=   79 NActive=   79 NUniq=   79 SFac= 1.00D+00 NAtFMM=   60 NAOKFM=T Big=T
 Integral buffers will be    131072 words long.
 Regular integral format.
 Two-electron integral symmetry is turned on.
 One-electron integrals computed using PRISM.
 NBasis=  1118 RedAO= T EigKep=  1.44D-04  NBF=  1118
 NBsUse=  1118 1.00D-06 EigRej= -1.00D+00 NBFU=  1118
 ExpMin= 7.71D-02 ExpMax= 9.34D+04 ExpMxC= 3.17D+03 IAcc=2 IRadAn=         4 AccDes= 0.00D+00
 Harris functional with IExCor=  402 and IRadAn=       4 diagonalized for initial guess.
 HarFok:  IExCor=  402 AccDes= 0.00D+00 IRadAn=         4 IDoV= 1 UseB2=F ITyADJ=14
 ICtDFT=  3500011 ScaDFX=  1.000000  1.000000  1.000000  1.000000
 FoFCou: FMM=F IPFlag=           0 FMFlag=      100000 FMFlg1=        2001
         NFxFlg=           0 DoJE=T BraDBF=F KetDBF=T FulRan=T
         wScrn=  0.000000 ICntrl=     500 IOpCl=  0 I1Cent=   200000004 NGrid=           0
         NMat0=    1 NMatS0=      1 NMatT0=    0 NMatD0=    1 NMtDS0=    0 NMtDT0=    0
 Petite list used in FoFCou.
 Requested convergence on RMS density matrix=1.00D-08 within 128 cycles.
 Requested convergence on MAX density matrix=1.00D-06.
 Requested convergence on             energy=1.00D-06.
 No special actions if energy rises.
 Integral accuracy reduced to 1.0D-05 until final iterations.
 Initial convergence to 1.0D-05 achieved.  Increase integral accuracy.
 SCF Done:  E(RB3LYP) =  -3582.92583623     A.U. after   17 cycles
            NFock= 17  Conv=0.47D-08     -V/T= 2.0028
 DoSCS=F DFT=T ScalE2(SS,OS)=  1.000000  1.000000
 ExpMin= 7.71D-02 ExpMax= 9.34D+04 ExpMxC= 3.17D+03 IAcc=3 IRadAn=         5 AccDes= 0.00D+00
 HarFok:  IExCor=  205 AccDes= 0.00D+00 IRadAn=         5 IDoV=-2 UseB2=F ITyADJ=14
 ICtDFT= 12500011 ScaDFX=  1.000000  1.000000  1.000000  1.000000
 Range of M.O.s used for correlation:    68  1118
 NBasis=  1118 NAE=   192 NBE=   192 NFC=    67 NFV=     0
 NROrb=   1051 NOA=   125 NOB=   125 NVA=   926 NVB=   926

 **** Warning!!: The largest alpha MO coefficient is  0.14583957D+02


 **** Warning!!: The smallest alpha delta epsilon is  0.76173212D-01

 Would need an additional        586642800000 words for in-memory AO integral storage.
 Orbital symmetries:
       Occupied  (A) (A) (A) (A) (A) (A) (A) (A) (A) (A) (A) (A)
                 (A) (A) (A) (A) (A) (A) (A) (A) (A) (A) (A) (A)
                 (A) (A) (A) (A) (A) (A) (A) (A) (A) (A) (A) (A)
                 (A) (A) (A) (A) (A) (A) (A) (A) (A) (A) (A) (A)
                 (A) (A) (A) (A) (A) (A) (A) (A) (A) (A) (A) (A)
                 (A) (A) (A) (A) (A) (A) (A) (A) (A) (A) (A) (A)
                 (A) (A) (A) (A) (A) (A) (A) (A) (A) (A) (A) (A)
                 (A) (A) (A) (A) (A) (A) (A) (A) (A) (A) (A) (A)
                 (A) (A) (A) (A) (A) (A) (A) (A) (A) (A) (A) (A)
                 (A) (A) (A) (A) (A) (A) (A) (A) (A) (A) (A) (A)
                 (A) (A) (A) (A) (A) (A) (A) (A) (A) (A) (A) (A)
                 (A) (A) (A) (A) (A) (A) (A) (A) (A) (A) (A) (A)
                 (A) (A) (A) (A) (A) (A) (A) (A) (A) (A) (A) (A)
                 (A) (A) (A) (A) (A) (A) (A) (A) (A) (A) (A) (A)
                 (A) (A) (A) (A) (A) (A) (A) (A) (A) (A) (A) (A)
                 (A) (A) (A) (A) (A) (A) (A) (A) (A) (A) (A) (A)
       Virtual   (A) (A) (A) (A) (A) (A) (A) (A) (A) (A) (A) (A)
                 (A) (A) (A) (A) (A) (A) (A) (A) (A) (A) (A) (A)
                 (A) (A) (A) (A) (A) (A) (A) (A) (A) (A) (A) (A)
                 (A) (A) (A) (A) (A) (A) (A) (A) (A) (A) (A) (A)
                 (A) (A) (A) (A) (A) (A) (A) (A) (A) (A) (A) (A)
                 (A) (A) (A) (A) (A) (A) (A) (A) (A) (A) (A) (A)
                 (A) (A) (A) (A) (A) (A) (A) (A) (A) (A) (A) (A)
                 (A) (A) (A) (A) (A) (A) (A) (A) (A) (A) (A) (A)
                 (A) (A) (A) (A) (A) (A) (A) (A) (A) (A) (A) (A)
                 (A) (A) (A) (A) (A) (A) (A) (A) (A) (A) (A) (A)
                 (A) (A) (A) (A) (A) (A) (A) (A) (A) (A) (A) (A)
                 (A) (A) (A) (A) (A) (A) (A) (A) (A) (A) (A) (A)
                 (A) (A) (A) (A) (A) (A) (A) (A) (A) (A) (A) (A)
                 (A) (A) (A) (A) (A) (A) (A) (A) (A) (A) (A) (A)
                 (A) (A) (A) (A) (A) (A) (A) (A) (A) (A) (A) (A)
                 (A) (A) (A) (A) (A) (A) (A) (A) (A) (A) (A) (A)
                 (A) (A) (A) (A) (A) (A) (A) (A) (A) (A) (A) (A)
                 (A) (A) (A) (A) (A) (A) (A) (A) (A) (A) (A) (A)
                 (A) (A) (A) (A) (A) (A) (A) (A) (A) (A) (A) (A)
                 (A) (A) (A) (A) (A) (A) (A) (A) (A) (A) (A) (A)
                 (A) (A) (A) (A) (A) (A) (A) (A) (A) (A) (A) (A)
                 (A) (A) (A) (A) (A) (A) (A) (A) (A) (A) (A) (A)
                 (A) (A) (A) (A) (A) (A) (A) (A) (A) (A) (A) (A)
                 (A) (A) (A) (A) (A) (A) (A) (A) (A) (A) (A) (A)
                 (A) (A) (A) (A) (A) (A) (A) (A) (A) (A) (A) (A)
                 (A) (A) (A) (A) (A) (A) (A) (A) (A) (A) (A) (A)
                 (A) (A) (A) (A) (A) (A) (A) (A) (A) (A) (A) (A)
                 (A) (A) (A) (A) (A) (A) (A) (A) (A) (A) (A) (A)
                 (A) (A) (A) (A) (A) (A) (A) (A) (A) (A) (A) (A)
                 (A) (A) (A) (A) (A) (A) (A) (A) (A) (A) (A) (A)
                 (A) (A) (A) (A) (A) (A) (A) (A) (A) (A) (A) (A)
                 (A) (A) (A) (A) (A) (A) (A) (A) (A) (A) (A) (A)
                 (A) (A) (A) (A) (A) (A) (A) (A) (A) (A) (A) (A)
                 (A) (A) (A) (A) (A) (A) (A) (A) (A) (A) (A) (A)
                 (A) (A) (A) (A) (A) (A) (A) (A) (A) (A) (A) (A)
                 (A) (A) (A) (A) (A) (A) (A) (A) (A) (A) (A) (A)
                 (A) (A) (A) (A) (A) (A) (A) (A) (A) (A) (A) (A)
                 (A) (A) (A) (A) (A) (A) (A) (A) (A) (A) (A) (A)
                 (A) (A) (A) (A) (A) (A) (A) (A) (A) (A) (A) (A)
                 (A) (A) (A) (A) (A) (A) (A) (A) (A) (A) (A) (A)
                 (A) (A) (A) (A) (A) (A) (A) (A) (A) (A) (A) (A)
                 (A) (A) (A) (A) (A) (A) (A) (A) (A) (A) (A) (A)
                 (A) (A) (A) (A) (A) (A) (A) (A) (A) (A) (A) (A)
                 (A) (A) (A) (A) (A) (A) (A) (A) (A) (A) (A) (A)
                 (A) (A) (A) (A) (A) (A) (A) (A) (A) (A) (A) (A)
                 (A) (A) (A) (A) (A) (A) (A) (A) (A) (A) (A) (A)
                 (A) (A) (A) (A) (A) (A) (A) (A) (A) (A) (A) (A)
                 (A) (A) (A) (A) (A) (A) (A) (A) (A) (A) (A) (A)
                 (A) (A) (A) (A) (A) (A) (A) (A) (A) (A) (A) (A)
                 (A) (A) (A) (A) (A) (A) (A) (A) (A) (A) (A) (A)
                 (A) (A) (A) (A) (A) (A) (A) (A) (A) (A) (A) (A)
                 (A) (A) (A) (A) (A) (A) (A) (A) (A) (A) (A) (A)
                 (A) (A) (A) (A) (A) (A) (A) (A) (A) (A) (A) (A)
                 (A) (A) (A) (A) (A) (A) (A) (A) (A) (A) (A) (A)
                 (A) (A) (A) (A) (A) (A) (A) (A) (A) (A) (A) (A)
                 (A) (A) (A) (A) (A) (A) (A) (A) (A) (A) (A) (A)
                 (A) (A) (A) (A) (A) (A) (A) (A) (A) (A) (A) (A)
                 (A) (A) (A) (A) (A) (A) (A) (A) (A) (A) (A) (A)
                 (A) (A) (A) (A) (A) (A) (A) (A) (A) (A) (A) (A)
                 (A) (A) (A) (A) (A) (A) (A) (A) (A) (A) (A) (A)
                 (A) (A) (A) (A) (A) (A) (A) (A) (A) (A) (A) (A)
                 (A) (A) (A) (A) (A) (A) (A) (A) (A) (A) (A) (A)
                 (A) (A) (A) (A) (A) (A) (A) (A) (A) (A) (A) (A)
                 (A) (A) (A) (A) (A) (A) (A) (A) (A) (A) (A) (A)
                 (A) (A) (A) (A) (A) (A) (A) (A) (A) (A) (A) (A)
                 (A) (A) (A) (A) (A) (A) (A) (A) (A) (A) (A) (A)
                 (A) (A) (A) (A) (A) (A) (A) (A) (A) (A) (A) (A)
                 (A) (A) (A) (A) (A) (A) (A) (A) (A) (A) (A) (A)
                 (A) (A) (A) (A) (A) (A) (A) (A) (A) (A) (A) (A)
                 (A) (A) (A) (A) (A) (A) (A) (A) (A) (A) (A) (A)
                 (A) (A) (A) (A) (A) (A) (A) (A) (A) (A) (A) (A)
                 (A) (A) (A) (A) (A) (A) (A) (A) (A) (A) (A) (A)
                 (A) (A) (A) (A) (A) (A) (A) (A) (A) (A) (A) (A)
                 (A) (A) (A) (A) (A) (A) (A) (A) (A) (A) (A) (A)
                 (A) (A) (A) (A) (A) (A) (A) (A) (A) (A) (A) (A)
                 (A) (A) (A) (A) (A) (A) (A) (A) (A) (A) (A) (A)
                 (A) (A) (A) (A) (A) (A) (A) (A) (A) (A) (A) (A)
                 (A) (A)
    40 initial guesses have been made.
 Convergence on wavefunction:    0.001000000000000
 Iteration     1 Dimension    40 NMult     0 NNew     40
 CISAX will form    40 AO SS matrices at one time.
 New state      5 was old state      6
 New state      6 was old state      7
 New state      7 was old state     12
 New state      8 was old state     11
 New state      9 was old state      8
 Iteration     2 Dimension    60 NMult    40 NNew     20
 New state      9 was old state     10
 New state     10 was old state      9
 Iteration     3 Dimension    80 NMult    60 NNew     20
 Iteration     4 Dimension   100 NMult    80 NNew     20
 Iteration     5 Dimension   120 NMult   100 NNew     20
 Iteration     6 Dimension   130 NMult   120 NNew     10
 Iteration     7 Dimension   132 NMult   130 NNew      2
 Iteration     8 Dimension   134 NMult   132 NNew      2
 ***********************************************************************
 Excited states from <AA,BB:AA,BB> singles matrix:
 ***********************************************************************
 
 Ground to excited state transition densities written to RWF  633
 Ground to excited state transition electric dipole moments (Au):
       state          X           Y           Z        Dip. S.      Osc.
         1        -5.2405     -0.0509     -0.1110     27.4778      1.2876
         2         2.8069      0.3000      0.1737      7.9988      0.4737
         3        -0.0746      0.3317     -0.2870      0.1980      0.0134
         4         0.4654     -0.5219      0.1998      0.5289      0.0389
         5        -2.0922      0.5400      0.1014      4.6794      0.3564
         6        -0.0696     -0.4691      0.2873      0.3075      0.0248
         7         0.0556      0.4782     -0.1446      0.2527      0.0222
         8         0.1542     -0.0250     -0.2814      0.1036      0.0092
         9         0.0683     -0.7723      0.2999      0.6910      0.0620
        10        -0.4144      0.0993     -0.0836      0.1886      0.0174
 Ground to excited state transition velocity dipole moments (Au):
       state          X           Y           Z        Dip. S.      Osc.
         1         0.3609      0.0048      0.0088      0.1304      1.2367
         2        -0.2462     -0.0283     -0.0168      0.0617      0.4630
         3         0.0041     -0.0340      0.0295      0.0020      0.0134
         4        -0.0504      0.0584     -0.0233      0.0065      0.0392
         5         0.2365     -0.0646     -0.0116      0.0602      0.3514
         6         0.0112      0.0567     -0.0366      0.0047      0.0258
         7        -0.0047     -0.0609      0.0190      0.0041      0.0207
         8        -0.0208     -0.0007      0.0492      0.0029      0.0144
         9        -0.0071      0.1011     -0.0390      0.0118      0.0583
        10         0.0571     -0.0121      0.0113      0.0035      0.0171
 Ground to excited state transition magnetic dipole moments (Au):
       state          X           Y           Z
         1         0.0068     -0.1895      1.0276
         2         0.0247      0.2330     -0.6087
         3        -0.0689     -0.2874     -0.5953
         4         0.0285      0.3152      0.4405
         5         0.0617      0.0539      0.8066
         6         0.0745      0.3970      0.6806
         7         0.0266     -0.0759     -0.7580
         8         0.0852      1.2595     -0.5645
         9         0.0779      0.2833      1.0784
        10         0.0426     -0.2153      0.2990
 Ground to excited state transition velocity quadrupole moments (Au):
       state          XX          YY          ZZ          XY          XZ          YZ
         1         0.8006      0.0318     -0.0081     -0.0366      0.2478     -0.1330
         2        -3.8001     -0.1030     -0.0339      0.2058     -0.3221      0.0832
         3         3.7880     -0.2391      0.0385     -0.9959      0.4491      0.1090
         4        -0.8277      0.2242      0.0015      0.5661     -0.4328     -0.0403
         5        -6.0406     -0.2291     -0.0920      0.2344     -0.0661     -0.0711
         6        -2.7504      0.2997     -0.0259      0.9697     -0.6175     -0.0840
         7        -1.4960     -0.2153     -0.0349     -0.3268      0.1258     -0.0530
         8         0.6192      0.0752      0.0381      0.1410     -0.8806      0.0523
         9        -1.2202      0.4048     -0.0320      1.4903     -0.4613     -0.1639
        10         2.6517     -0.0280      0.0315     -0.3087      0.3293      0.0009
 <0|del|b> * <b|rxdel|0> + <0|del|b> * <b|delr+rdel|0>
 Rotatory Strengths (R) in cgs (10**-40 erg-esu-cm/Gauss)
       state          XX          YY          ZZ    R(velocity)    E-M Angle
         1        33.4148   -181.8305    255.3004     35.6282       88.39
         2       -35.5955    -51.4182     67.3035     -6.5701       90.88
         3       -76.4840     41.8044    -21.7373    -18.8056      105.62
         4        64.9957     11.2520    -33.1176     14.3767       81.14
         5       -61.3961    -27.4426     99.5790      3.5801       89.50
         6        -8.1868     30.6316    -31.4032     -2.9862       91.62
         7       -22.4779    -21.6912     -9.1702    -17.7798      101.76
         8       -59.4241   -100.2495     -2.5100    -54.0612      114.29
         9       -65.2514     43.7519    -51.7544    -24.4180       96.60
        10        16.6385     24.0124      2.5564     14.4025       67.51
 1/2[<0|r|b>*<b|rxdel|0> + (<0|rxdel|b>*<b|r|0>)*]
 Rotatory Strengths (R) in cgs (10**-40 erg-esu-cm/Gauss)
       state          XX          YY          ZZ     R(length)
         1        25.3522     -6.8274     80.6619     33.0622
         2       -49.0976    -49.4379     74.7721     -7.9211
         3        -3.6358     67.4060   -120.8184    -19.0161
         4        -9.3885    116.3132    -62.2295     14.8984
         5        91.2355    -20.5811    -57.8586      4.2653
         6         3.6669    131.6998   -138.2594     -0.9642
         7        -1.0464     25.6587    -77.5016    -17.6298
         8        -9.2955     22.2996   -112.3511    -33.1157
         9        -3.7627    154.6883   -228.7198    -25.9314
        10        12.4967     15.1200     17.6673     15.0947
  1/2[<0|del|b>*<b|r|0> + (<0|r|b>*<b|del|0>)*] (Au)
       state          X           Y           Z        Dip. S.   Osc.(frdel)
         1        -1.8915     -0.0002     -0.0010      1.8928      1.2618
         2        -0.6911     -0.0085     -0.0029      0.7025      0.4683
         3        -0.0003     -0.0113     -0.0085      0.0201      0.0134
         4        -0.0235     -0.0305     -0.0046      0.0586      0.0391
         5        -0.4947     -0.0349     -0.0012      0.5308      0.3539
         6        -0.0008     -0.0266     -0.0105      0.0379      0.0253
         7        -0.0003     -0.0291     -0.0028      0.0321      0.0214
         8        -0.0032      0.0000     -0.0138      0.0170      0.0114
         9        -0.0005     -0.0780     -0.0117      0.0902      0.0601
        10        -0.0237     -0.0012     -0.0009      0.0258      0.0172

 Excitation energies and oscillator strengths:
 
 Excited State   1:      Singlet-A      1.9126 eV  648.23 nm  f=1.2876  <S**2>=0.000
     192 -> 193        0.70293
 This state for optimization and/or second-order correction.
 Total Energy, E(TD-HF/TD-KS) =  -3582.85554765    
 Copying the excited state density for this state as the 1-particle RhoCI density.
 
 Excited State   2:      Singlet-A      2.4174 eV  512.87 nm  f=0.4737  <S**2>=0.000
     191 -> 193        0.68009
     192 -> 194        0.15603
 
 Excited State   3:      Singlet-A      2.7623 eV  448.84 nm  f=0.0134  <S**2>=0.000
     190 -> 193        0.22157
     191 -> 193       -0.15511
     192 -> 194        0.63938
 
 Excited State   4:      Singlet-A      3.0040 eV  412.74 nm  f=0.0389  <S**2>=0.000
     190 -> 193        0.56483
     191 -> 195        0.10436
     192 -> 194       -0.19279
     192 -> 195       -0.33200
 
 Excited State   5:      Singlet-A      3.1090 eV  398.79 nm  f=0.3564  <S**2>=0.000
     190 -> 193        0.25428
     191 -> 194       -0.19609
     192 -> 194       -0.13455
     192 -> 195        0.59030
 
 Excited State   6:      Singlet-A      3.2874 eV  377.15 nm  f=0.0248  <S**2>=0.000
     187 -> 193       -0.13854
     190 -> 193        0.18395
     191 -> 194        0.63196
     192 -> 195        0.14098
 
 Excited State   7:      Singlet-A      3.5842 eV  345.92 nm  f=0.0222  <S**2>=0.000
     187 -> 193       -0.28670
     191 -> 195        0.60088
 
 Excited State   8:      Singlet-A      3.6054 eV  343.89 nm  f=0.0092  <S**2>=0.000
     188 -> 193       -0.12299
     191 -> 196        0.20186
     192 -> 196        0.64561
 
 Excited State   9:      Singlet-A      3.6646 eV  338.33 nm  f=0.0620  <S**2>=0.000
     187 -> 193        0.54975
     188 -> 193       -0.11697
     190 -> 194       -0.18111
     191 -> 194        0.15364
     191 -> 195        0.30676
 
 Excited State  10:      Singlet-A      3.7594 eV  329.79 nm  f=0.0174  <S**2>=0.000
     182 -> 193        0.21643
     185 -> 193        0.37291
     186 -> 193        0.24589
     188 -> 193       -0.12922
     189 -> 193        0.44334
     190 -> 193       -0.10573
 SavETr:  write IOETrn=   770 NScale= 10 NData=  16 NLR=1 NState=   10 LETran=     190.

 **********************************************************************

            Population analysis using the SCF density.

 **********************************************************************

 Orbital symmetries:
       Occupied  (A) (A) (A) (A) (A) (A) (A) (A) (A) (A) (A) (A)
                 (A) (A) (A) (A) (A) (A) (A) (A) (A) (A) (A) (A)
                 (A) (A) (A) (A) (A) (A) (A) (A) (A) (A) (A) (A)
                 (A) (A) (A) (A) (A) (A) (A) (A) (A) (A) (A) (A)
                 (A) (A) (A) (A) (A) (A) (A) (A) (A) (A) (A) (A)
                 (A) (A) (A) (A) (A) (A) (A) (A) (A) (A) (A) (A)
                 (A) (A) (A) (A) (A) (A) (A) (A) (A) (A) (A) (A)
                 (A) (A) (A) (A) (A) (A) (A) (A) (A) (A) (A) (A)
                 (A) (A) (A) (A) (A) (A) (A) (A) (A) (A) (A) (A)
                 (A) (A) (A) (A) (A) (A) (A) (A) (A) (A) (A) (A)
                 (A) (A) (A) (A) (A) (A) (A) (A) (A) (A) (A) (A)
                 (A) (A) (A) (A) (A) (A) (A) (A) (A) (A) (A) (A)
                 (A) (A) (A) (A) (A) (A) (A) (A) (A) (A) (A) (A)
                 (A) (A) (A) (A) (A) (A) (A) (A) (A) (A) (A) (A)
                 (A) (A) (A) (A) (A) (A) (A) (A) (A) (A) (A) (A)
                 (A) (A) (A) (A) (A) (A) (A) (A) (A) (A) (A) (A)
       Virtual   (A) (A) (A) (A) (A) (A) (A) (A) (A) (A) (A) (A)
                 (A) (A) (A) (A) (A) (A) (A) (A) (A) (A) (A) (A)
                 (A) (A) (A) (A) (A) (A) (A) (A) (A) (A) (A) (A)
                 (A) (A) (A) (A) (A) (A) (A) (A) (A) (A) (A) (A)
                 (A) (A) (A) (A) (A) (A) (A) (A) (A) (A) (A) (A)
                 (A) (A) (A) (A) (A) (A) (A) (A) (A) (A) (A) (A)
                 (A) (A) (A) (A) (A) (A) (A) (A) (A) (A) (A) (A)
                 (A) (A) (A) (A) (A) (A) (A) (A) (A) (A) (A) (A)
                 (A) (A) (A) (A) (A) (A) (A) (A) (A) (A) (A) (A)
                 (A) (A) (A) (A) (A) (A) (A) (A) (A) (A) (A) (A)
                 (A) (A) (A) (A) (A) (A) (A) (A) (A) (A) (A) (A)
                 (A) (A) (A) (A) (A) (A) (A) (A) (A) (A) (A) (A)
                 (A) (A) (A) (A) (A) (A) (A) (A) (A) (A) (A) (A)
                 (A) (A) (A) (A) (A) (A) (A) (A) (A) (A) (A) (A)
                 (A) (A) (A) (A) (A) (A) (A) (A) (A) (A) (A) (A)
                 (A) (A) (A) (A) (A) (A) (A) (A) (A) (A) (A) (A)
                 (A) (A) (A) (A) (A) (A) (A) (A) (A) (A) (A) (A)
                 (A) (A) (A) (A) (A) (A) (A) (A) (A) (A) (A) (A)
                 (A) (A) (A) (A) (A) (A) (A) (A) (A) (A) (A) (A)
                 (A) (A) (A) (A) (A) (A) (A) (A) (A) (A) (A) (A)
                 (A) (A) (A) (A) (A) (A) (A) (A) (A) (A) (A) (A)
                 (A) (A) (A) (A) (A) (A) (A) (A) (A) (A) (A) (A)
                 (A) (A) (A) (A) (A) (A) (A) (A) (A) (A) (A) (A)
                 (A) (A) (A) (A) (A) (A) (A) (A) (A) (A) (A) (A)
                 (A) (A) (A) (A) (A) (A) (A) (A) (A) (A) (A) (A)
                 (A) (A) (A) (A) (A) (A) (A) (A) (A) (A) (A) (A)
                 (A) (A) (A) (A) (A) (A) (A) (A) (A) (A) (A) (A)
                 (A) (A) (A) (A) (A) (A) (A) (A) (A) (A) (A) (A)
                 (A) (A) (A) (A) (A) (A) (A) (A) (A) (A) (A) (A)
                 (A) (A) (A) (A) (A) (A) (A) (A) (A) (A) (A) (A)
                 (A) (A) (A) (A) (A) (A) (A) (A) (A) (A) (A) (A)
                 (A) (A) (A) (A) (A) (A) (A) (A) (A) (A) (A) (A)
                 (A) (A) (A) (A) (A) (A) (A) (A) (A) (A) (A) (A)
                 (A) (A) (A) (A) (A) (A) (A) (A) (A) (A) (A) (A)
                 (A) (A) (A) (A) (A) (A) (A) (A) (A) (A) (A) (A)
                 (A) (A) (A) (A) (A) (A) (A) (A) (A) (A) (A) (A)
                 (A) (A) (A) (A) (A) (A) (A) (A) (A) (A) (A) (A)
                 (A) (A) (A) (A) (A) (A) (A) (A) (A) (A) (A) (A)
                 (A) (A) (A) (A) (A) (A) (A) (A) (A) (A) (A) (A)
                 (A) (A) (A) (A) (A) (A) (A) (A) (A) (A) (A) (A)
                 (A) (A) (A) (A) (A) (A) (A) (A) (A) (A) (A) (A)
                 (A) (A) (A) (A) (A) (A) (A) (A) (A) (A) (A) (A)
                 (A) (A) (A) (A) (A) (A) (A) (A) (A) (A) (A) (A)
                 (A) (A) (A) (A) (A) (A) (A) (A) (A) (A) (A) (A)
                 (A) (A) (A) (A) (A) (A) (A) (A) (A) (A) (A) (A)
                 (A) (A) (A) (A) (A) (A) (A) (A) (A) (A) (A) (A)
                 (A) (A) (A) (A) (A) (A) (A) (A) (A) (A) (A) (A)
                 (A) (A) (A) (A) (A) (A) (A) (A) (A) (A) (A) (A)
                 (A) (A) (A) (A) (A) (A) (A) (A) (A) (A) (A) (A)
                 (A) (A) (A) (A) (A) (A) (A) (A) (A) (A) (A) (A)
                 (A) (A) (A) (A) (A) (A) (A) (A) (A) (A) (A) (A)
                 (A) (A) (A) (A) (A) (A) (A) (A) (A) (A) (A) (A)
                 (A) (A) (A) (A) (A) (A) (A) (A) (A) (A) (A) (A)
                 (A) (A) (A) (A) (A) (A) (A) (A) (A) (A) (A) (A)
                 (A) (A) (A) (A) (A) (A) (A) (A) (A) (A) (A) (A)
                 (A) (A) (A) (A) (A) (A) (A) (A) (A) (A) (A) (A)
                 (A) (A) (A) (A) (A) (A) (A) (A) (A) (A) (A) (A)
                 (A) (A) (A) (A) (A) (A) (A) (A) (A) (A) (A) (A)
                 (A) (A) (A) (A) (A) (A) (A) (A) (A) (A) (A) (A)
                 (A) (A) (A) (A) (A) (A) (A) (A) (A) (A) (A) (A)
                 (A) (A) (A) (A) (A) (A) (A) (A) (A) (A) (A) (A)
                 (A) (A) (A) (A) (A) (A) (A) (A) (A) (A) (A) (A)
                 (A) (A) (A) (A) (A) (A) (A) (A) (A) (A) (A) (A)
                 (A) (A) (A) (A) (A) (A) (A) (A) (A) (A) (A) (A)
                 (A) (A) (A) (A) (A) (A) (A) (A) (A) (A) (A) (A)
                 (A) (A) (A) (A) (A) (A) (A) (A) (A) (A) (A) (A)
                 (A) (A) (A) (A) (A) (A) (A) (A) (A) (A) (A) (A)
                 (A) (A) (A) (A) (A) (A) (A) (A) (A) (A) (A) (A)
                 (A) (A) (A) (A) (A) (A) (A) (A) (A) (A) (A) (A)
                 (A) (A) (A) (A) (A) (A) (A) (A) (A) (A) (A) (A)
                 (A) (A) (A) (A) (A) (A) (A) (A) (A) (A) (A) (A)
                 (A) (A) (A) (A) (A) (A) (A) (A) (A) (A) (A) (A)
                 (A) (A) (A) (A) (A) (A) (A) (A) (A) (A) (A) (A)
                 (A) (A) (A) (A) (A) (A) (A) (A) (A) (A) (A) (A)
                 (A) (A) (A) (A) (A) (A) (A) (A) (A) (A) (A) (A)
                 (A) (A) (A) (A) (A) (A) (A) (A) (A) (A) (A) (A)
                 (A) (A) (A) (A) (A) (A) (A) (A) (A) (A) (A) (A)
                 (A) (A)
 The electronic state is 1-A.
 Alpha  occ. eigenvalues --  -88.90685 -88.90558 -88.89679 -88.89397 -19.17625
 Alpha  occ. eigenvalues --  -19.16694 -19.11497 -19.10446 -14.35889 -14.30610
 Alpha  occ. eigenvalues --  -10.31451 -10.30940 -10.25543 -10.24113 -10.24027
 Alpha  occ. eigenvalues --  -10.24016 -10.23696 -10.23558 -10.23370 -10.23198
 Alpha  occ. eigenvalues --  -10.23061 -10.22898 -10.22872 -10.22843 -10.22821
 Alpha  occ. eigenvalues --  -10.22651 -10.22624 -10.21694 -10.20961 -10.20708
 Alpha  occ. eigenvalues --  -10.20489 -10.20425 -10.20271 -10.20058 -10.19624
 Alpha  occ. eigenvalues --  -10.19326 -10.19284 -10.18809 -10.18774 -10.18710
 Alpha  occ. eigenvalues --  -10.18679 -10.18621 -10.18609 -10.18568 -10.18546
 Alpha  occ. eigenvalues --  -10.18534 -10.18480 -10.18462 -10.18423 -10.18278
 Alpha  occ. eigenvalues --  -10.18196  -7.99315  -7.99148  -7.98277  -7.97944
 Alpha  occ. eigenvalues --   -5.95634  -5.95459  -5.95242  -5.95091  -5.94868
 Alpha  occ. eigenvalues --   -5.94703  -5.94586  -5.94280  -5.94217  -5.93887
 Alpha  occ. eigenvalues --   -5.93838  -5.93459  -1.11916  -1.10643  -1.03155
 Alpha  occ. eigenvalues --   -1.02730  -0.98373  -0.94325  -0.93505  -0.90827
 Alpha  occ. eigenvalues --   -0.90248  -0.88016  -0.87532  -0.87231  -0.85860
 Alpha  occ. eigenvalues --   -0.84992  -0.83973  -0.80609  -0.79309  -0.77804
 Alpha  occ. eigenvalues --   -0.77605  -0.77338  -0.76577  -0.76193  -0.76046
 Alpha  occ. eigenvalues --   -0.76022  -0.75131  -0.74617  -0.73422  -0.72938
 Alpha  occ. eigenvalues --   -0.71191  -0.70960  -0.67772  -0.65490  -0.64714
 Alpha  occ. eigenvalues --   -0.64484  -0.63747  -0.63095  -0.62476  -0.62338
 Alpha  occ. eigenvalues --   -0.61722  -0.61293  -0.59323  -0.58612  -0.57359
 Alpha  occ. eigenvalues --   -0.57257  -0.56555  -0.56422  -0.55691  -0.55247
 Alpha  occ. eigenvalues --   -0.55067  -0.54231  -0.52280  -0.51334  -0.50672
 Alpha  occ. eigenvalues --   -0.49983  -0.49783  -0.49597  -0.49397  -0.48609
 Alpha  occ. eigenvalues --   -0.48427  -0.47567  -0.47208  -0.46791  -0.46560
 Alpha  occ. eigenvalues --   -0.46375  -0.45994  -0.45680  -0.45653  -0.45035
 Alpha  occ. eigenvalues --   -0.44828  -0.44543  -0.44429  -0.44188  -0.44045
 Alpha  occ. eigenvalues --   -0.43771  -0.43625  -0.43577  -0.43062  -0.42215
 Alpha  occ. eigenvalues --   -0.41886  -0.41733  -0.41442  -0.41023  -0.40635
 Alpha  occ. eigenvalues --   -0.40180  -0.39989  -0.39416  -0.39295  -0.38802
 Alpha  occ. eigenvalues --   -0.38715  -0.38503  -0.38225  -0.38109  -0.37876
 Alpha  occ. eigenvalues --   -0.37790  -0.37270  -0.37205  -0.36884  -0.36661
 Alpha  occ. eigenvalues --   -0.36254  -0.36027  -0.35906  -0.35818  -0.35485
 Alpha  occ. eigenvalues --   -0.35308  -0.34803  -0.33800  -0.33121  -0.32632
 Alpha  occ. eigenvalues --   -0.32524  -0.31839  -0.30191  -0.29391  -0.28611
 Alpha  occ. eigenvalues --   -0.28265  -0.28006  -0.27916  -0.27712  -0.27407
 Alpha  occ. eigenvalues --   -0.27311  -0.26762  -0.26721  -0.26519  -0.23925
 Alpha  occ. eigenvalues --   -0.21185  -0.19264
 Alpha virt. eigenvalues --   -0.11647  -0.08056  -0.06671  -0.03916  -0.03611
 Alpha virt. eigenvalues --   -0.03205  -0.02560  -0.01953  -0.01617  -0.01458
 Alpha virt. eigenvalues --   -0.01121  -0.00118   0.00515   0.01091   0.01774
 Alpha virt. eigenvalues --    0.02076   0.02214   0.02751   0.02977   0.03347
 Alpha virt. eigenvalues --    0.03401   0.04281   0.04383   0.04520   0.04929
 Alpha virt. eigenvalues --    0.05432   0.05505   0.06275   0.06530   0.06676
 Alpha virt. eigenvalues --    0.06953   0.07089   0.07343   0.07738   0.08027
 Alpha virt. eigenvalues --    0.08288   0.08429   0.08826   0.09143   0.09639
 Alpha virt. eigenvalues --    0.10190   0.10513   0.10862   0.10978   0.11228
 Alpha virt. eigenvalues --    0.11289   0.11594   0.11624   0.11699   0.12019
 Alpha virt. eigenvalues --    0.12564   0.12679   0.12748   0.13249   0.13609
 Alpha virt. eigenvalues --    0.13791   0.13996   0.14297   0.14879   0.15148
 Alpha virt. eigenvalues --    0.15240   0.15648   0.16235   0.16385   0.16658
 Alpha virt. eigenvalues --    0.17072   0.18183   0.18649   0.19136   0.19667
 Alpha virt. eigenvalues --    0.19966   0.20769   0.21168   0.21450   0.21890
 Alpha virt. eigenvalues --    0.22221   0.22663   0.22923   0.23003   0.23439
 Alpha virt. eigenvalues --    0.23818   0.24477   0.25086   0.25200   0.25364
 Alpha virt. eigenvalues --    0.26118   0.26222   0.26302   0.26845   0.27166
 Alpha virt. eigenvalues --    0.27839   0.27995   0.28226   0.28456   0.28942
 Alpha virt. eigenvalues --    0.29193   0.29601   0.30072   0.30119   0.30282
 Alpha virt. eigenvalues --    0.30397   0.30809   0.30967   0.31619   0.31885
 Alpha virt. eigenvalues --    0.32685   0.32813   0.33344   0.33820   0.33936
 Alpha virt. eigenvalues --    0.34605   0.35073   0.35339   0.35457   0.35657
 Alpha virt. eigenvalues --    0.35994   0.36344   0.36464   0.36610   0.36842
 Alpha virt. eigenvalues --    0.37004   0.37170   0.37279   0.37434   0.37980
 Alpha virt. eigenvalues --    0.38156   0.38313   0.38660   0.39108   0.39194
 Alpha virt. eigenvalues --    0.39705   0.39899   0.40422   0.40654   0.40878
 Alpha virt. eigenvalues --    0.40929   0.41107   0.41343   0.41591   0.41758
 Alpha virt. eigenvalues --    0.41780   0.42121   0.42153   0.42490   0.42523
 Alpha virt. eigenvalues --    0.42709   0.42771   0.43066   0.43334   0.43399
 Alpha virt. eigenvalues --    0.43566   0.43717   0.44270   0.44524   0.44843
 Alpha virt. eigenvalues --    0.45275   0.45837   0.46062   0.46606   0.46698
 Alpha virt. eigenvalues --    0.46834   0.46909   0.47433   0.47503   0.47628
 Alpha virt. eigenvalues --    0.48363   0.48583   0.48857   0.49164   0.49821
 Alpha virt. eigenvalues --    0.50010   0.50241   0.50490   0.50718   0.51067
 Alpha virt. eigenvalues --    0.51688   0.51949   0.52385   0.52535   0.52896
 Alpha virt. eigenvalues --    0.53203   0.53311   0.53728   0.54049   0.54245
 Alpha virt. eigenvalues --    0.54504   0.54683   0.55101   0.55276   0.55740
 Alpha virt. eigenvalues --    0.55767   0.55884   0.56065   0.56351   0.56860
 Alpha virt. eigenvalues --    0.57169   0.57502   0.57850   0.58047   0.58153
 Alpha virt. eigenvalues --    0.58562   0.58868   0.59163   0.59365   0.59475
 Alpha virt. eigenvalues --    0.59593   0.59888   0.59970   0.60175   0.60269
 Alpha virt. eigenvalues --    0.60439   0.60633   0.61012   0.61102   0.61212
 Alpha virt. eigenvalues --    0.61555   0.61963   0.62053   0.62116   0.62690
 Alpha virt. eigenvalues --    0.62767   0.63113   0.63617   0.63831   0.63990
 Alpha virt. eigenvalues --    0.64449   0.64786   0.64995   0.65148   0.65319
 Alpha virt. eigenvalues --    0.65651   0.66074   0.66239   0.66506   0.66738
 Alpha virt. eigenvalues --    0.67229   0.67439   0.67621   0.68019   0.69021
 Alpha virt. eigenvalues --    0.69518   0.70088   0.70249   0.70484   0.70768
 Alpha virt. eigenvalues --    0.71283   0.72030   0.72103   0.72343   0.72826
 Alpha virt. eigenvalues --    0.73335   0.73582   0.73749   0.73762   0.74220
 Alpha virt. eigenvalues --    0.74609   0.74972   0.75320   0.76126   0.76565
 Alpha virt. eigenvalues --    0.76814   0.77001   0.77289   0.77532   0.77638
 Alpha virt. eigenvalues --    0.77954   0.78076   0.78635   0.79651   0.79708
 Alpha virt. eigenvalues --    0.80182   0.80398   0.80502   0.80653   0.81171
 Alpha virt. eigenvalues --    0.81520   0.81781   0.81976   0.82705   0.82742
 Alpha virt. eigenvalues --    0.83103   0.83231   0.83800   0.83825   0.84317
 Alpha virt. eigenvalues --    0.84659   0.84774   0.84963   0.85376   0.86207
 Alpha virt. eigenvalues --    0.86466   0.86699   0.86808   0.87268   0.87569
 Alpha virt. eigenvalues --    0.88022   0.88088   0.88604   0.89029   0.89541
 Alpha virt. eigenvalues --    0.89864   0.89954   0.90352   0.90405   0.90610
 Alpha virt. eigenvalues --    0.90653   0.91078   0.92203   0.92592   0.92934
 Alpha virt. eigenvalues --    0.93343   0.93897   0.94255   0.94687   0.94742
 Alpha virt. eigenvalues --    0.95188   0.95944   0.96357   0.96791   0.97397
 Alpha virt. eigenvalues --    0.97507   0.97867   0.98426   0.98826   0.98985
 Alpha virt. eigenvalues --    0.99490   0.99815   1.00061   1.00531   1.00669
 Alpha virt. eigenvalues --    1.01629   1.02012   1.02575   1.02811   1.03137
 Alpha virt. eigenvalues --    1.03333   1.04847   1.05220   1.05661   1.05816
 Alpha virt. eigenvalues --    1.06394   1.06653   1.07081   1.07136   1.07224
 Alpha virt. eigenvalues --    1.07680   1.08492   1.08860   1.09198   1.09419
 Alpha virt. eigenvalues --    1.10135   1.10412   1.10795   1.11438   1.11590
 Alpha virt. eigenvalues --    1.11785   1.12116   1.12793   1.12931   1.13407
 Alpha virt. eigenvalues --    1.13862   1.14076   1.15458   1.16250   1.16680
 Alpha virt. eigenvalues --    1.17425   1.18155   1.18347   1.18917   1.20847
 Alpha virt. eigenvalues --    1.21427   1.21957   1.23026   1.23911   1.24183
 Alpha virt. eigenvalues --    1.24411   1.24999   1.25429   1.26103   1.26887
 Alpha virt. eigenvalues --    1.27397   1.27985   1.28816   1.30122   1.31157
 Alpha virt. eigenvalues --    1.32061   1.32871   1.33310   1.34561   1.34793
 Alpha virt. eigenvalues --    1.35481   1.35751   1.35905   1.36303   1.37400
 Alpha virt. eigenvalues --    1.37631   1.38170   1.38437   1.38786   1.39294
 Alpha virt. eigenvalues --    1.39501   1.41365   1.41952   1.42168   1.42401
 Alpha virt. eigenvalues --    1.42800   1.42993   1.43415   1.43968   1.44695
 Alpha virt. eigenvalues --    1.44788   1.45002   1.45441   1.45569   1.45853
 Alpha virt. eigenvalues --    1.45962   1.46448   1.47186   1.47262   1.47561
 Alpha virt. eigenvalues --    1.47816   1.48451   1.48604   1.49120   1.49142
 Alpha virt. eigenvalues --    1.49380   1.49990   1.50419   1.50921   1.51946
 Alpha virt. eigenvalues --    1.52043   1.52396   1.52883   1.53263   1.53552
 Alpha virt. eigenvalues --    1.54260   1.54508   1.54889   1.55299   1.55737
 Alpha virt. eigenvalues --    1.55984   1.56417   1.56633   1.56804   1.57009
 Alpha virt. eigenvalues --    1.57302   1.57446   1.57774   1.58013   1.58581
 Alpha virt. eigenvalues --    1.58989   1.59379   1.59706   1.59858   1.60241
 Alpha virt. eigenvalues --    1.60725   1.61341   1.62032   1.62745   1.62930
 Alpha virt. eigenvalues --    1.63068   1.63220   1.63767   1.64102   1.64444
 Alpha virt. eigenvalues --    1.64753   1.65115   1.65460   1.65669   1.65827
 Alpha virt. eigenvalues --    1.66145   1.66434   1.66834   1.67027   1.67863
 Alpha virt. eigenvalues --    1.68174   1.68743   1.68940   1.69546   1.69596
 Alpha virt. eigenvalues --    1.70616   1.71414   1.71666   1.72139   1.72364
 Alpha virt. eigenvalues --    1.72562   1.72782   1.73109   1.73509   1.73625
 Alpha virt. eigenvalues --    1.73738   1.74473   1.74576   1.76356   1.76433
 Alpha virt. eigenvalues --    1.76631   1.76732   1.77080   1.77397   1.77913
 Alpha virt. eigenvalues --    1.78332   1.78620   1.78844   1.79866   1.80244
 Alpha virt. eigenvalues --    1.80810   1.81093   1.81908   1.82209   1.83281
 Alpha virt. eigenvalues --    1.83833   1.84048   1.84420   1.85929   1.86455
 Alpha virt. eigenvalues --    1.86882   1.87057   1.88074   1.88358   1.88919
 Alpha virt. eigenvalues --    1.89046   1.89470   1.89689   1.89932   1.90240
 Alpha virt. eigenvalues --    1.90358   1.90566   1.90669   1.90861   1.91042
 Alpha virt. eigenvalues --    1.91564   1.91730   1.92033   1.92376   1.92843
 Alpha virt. eigenvalues --    1.93405   1.93543   1.94404   1.94714   1.95060
 Alpha virt. eigenvalues --    1.95317   1.95830   1.96142   1.96865   1.96972
 Alpha virt. eigenvalues --    1.97537   1.98136   1.98271   1.99165   1.99781
 Alpha virt. eigenvalues --    2.00035   2.00313   2.00853   2.00968   2.01237
 Alpha virt. eigenvalues --    2.01791   2.02662   2.03146   2.03553   2.04624
 Alpha virt. eigenvalues --    2.04901   2.05215   2.05523   2.06140   2.06380
 Alpha virt. eigenvalues --    2.06553   2.07183   2.07344   2.08007   2.08654
 Alpha virt. eigenvalues --    2.09238   2.09817   2.10440   2.11059   2.11196
 Alpha virt. eigenvalues --    2.11403   2.11927   2.12351   2.12657   2.14144
 Alpha virt. eigenvalues --    2.14875   2.15176   2.15746   2.15975   2.16654
 Alpha virt. eigenvalues --    2.17266   2.19506   2.19762   2.21102   2.22658
 Alpha virt. eigenvalues --    2.22713   2.23711   2.24291   2.24903   2.26196
 Alpha virt. eigenvalues --    2.26567   2.27290   2.27673   2.27926   2.28767
 Alpha virt. eigenvalues --    2.29672   2.29903   2.30366   2.30796   2.32079
 Alpha virt. eigenvalues --    2.32629   2.32902   2.33838   2.34502   2.34751
 Alpha virt. eigenvalues --    2.35661   2.35981   2.37192   2.37359   2.37514
 Alpha virt. eigenvalues --    2.38103   2.38822   2.39782   2.39949   2.41310
 Alpha virt. eigenvalues --    2.42143   2.42884   2.43053   2.43729   2.44780
 Alpha virt. eigenvalues --    2.44837   2.45218   2.46671   2.47716   2.48316
 Alpha virt. eigenvalues --    2.48859   2.49496   2.49993   2.50644   2.51352
 Alpha virt. eigenvalues --    2.51633   2.52012   2.52176   2.52909   2.53196
 Alpha virt. eigenvalues --    2.53754   2.54253   2.55492   2.57069   2.57572
 Alpha virt. eigenvalues --    2.57954   2.58116   2.58446   2.58775   2.58966
 Alpha virt. eigenvalues --    2.59447   2.59533   2.59776   2.60378   2.60817
 Alpha virt. eigenvalues --    2.61221   2.61322   2.61751   2.61948   2.62126
 Alpha virt. eigenvalues --    2.62714   2.62828   2.63232   2.63746   2.64466
 Alpha virt. eigenvalues --    2.64834   2.65377   2.65540   2.65681   2.66087
 Alpha virt. eigenvalues --    2.66515   2.66661   2.67422   2.67817   2.68393
 Alpha virt. eigenvalues --    2.68771   2.69383   2.69843   2.70147   2.71023
 Alpha virt. eigenvalues --    2.71453   2.72019   2.72330   2.73415   2.73742
 Alpha virt. eigenvalues --    2.74868   2.76605   2.77261   2.78040   2.78219
 Alpha virt. eigenvalues --    2.78618   2.78864   2.79483   2.80318   2.81154
 Alpha virt. eigenvalues --    2.81398   2.82118   2.82490   2.83146   2.83879
 Alpha virt. eigenvalues --    2.84121   2.84145   2.84854   2.84866   2.85086
 Alpha virt. eigenvalues --    2.85666   2.85768   2.86069   2.87802   2.88135
 Alpha virt. eigenvalues --    2.88481   2.88815   2.88866   2.89374   2.90253
 Alpha virt. eigenvalues --    2.90433   2.90743   2.90865   2.91621   2.92058
 Alpha virt. eigenvalues --    2.92693   2.93628   2.94179   2.94617   2.95773
 Alpha virt. eigenvalues --    2.96269   2.96436   2.97027   2.98668   2.99177
 Alpha virt. eigenvalues --    2.99784   3.00022   3.01358   3.02971   3.03285
 Alpha virt. eigenvalues --    3.04988   3.06113   3.06850   3.07052   3.07283
 Alpha virt. eigenvalues --    3.07589   3.08876   3.09117   3.09321   3.10509
 Alpha virt. eigenvalues --    3.11975   3.13010   3.14569   3.14946   3.16080
 Alpha virt. eigenvalues --    3.16706   3.17010   3.17489   3.18460   3.18562
 Alpha virt. eigenvalues --    3.19241   3.20179   3.20482   3.22190   3.24449
 Alpha virt. eigenvalues --    3.25395   3.26125   3.26655   3.29085   3.30481
 Alpha virt. eigenvalues --    3.31853   3.33375   3.34187   3.34941   3.35230
 Alpha virt. eigenvalues --    3.35411   3.35618   3.36816   3.36936   3.37261
 Alpha virt. eigenvalues --    3.40670   3.41591   3.41757   3.42668   3.45056
 Alpha virt. eigenvalues --    3.45817   3.46215   3.46255   3.47117   3.48372
 Alpha virt. eigenvalues --    3.48500   3.49466   3.50567   3.52482   3.53479
 Alpha virt. eigenvalues --    3.56355   3.57384   3.58886   3.60454   3.61671
 Alpha virt. eigenvalues --    3.62488   3.63047   3.67877   3.68558   3.74073
 Alpha virt. eigenvalues --    3.74484   3.75003   3.76529   3.77549   3.77771
 Alpha virt. eigenvalues --    3.78367   3.80849   3.81011   3.82801   3.84426
 Alpha virt. eigenvalues --    3.84834   3.89093   3.90208   3.93382   3.94637
 Alpha virt. eigenvalues --    3.95529   3.95662   3.96023   3.97042   3.97751
 Alpha virt. eigenvalues --    4.01886   4.02838   4.03771   4.07207   4.09508
 Alpha virt. eigenvalues --    4.10377   4.10944   4.11299   4.11828   4.13242
 Alpha virt. eigenvalues --    4.15571   4.15736   4.16166   4.23095   4.25604
 Alpha virt. eigenvalues --    4.29007   4.32675   4.48371   4.52763   4.53904
 Alpha virt. eigenvalues --    4.56609   4.66565   4.82485   4.82704   4.83099
 Alpha virt. eigenvalues --    4.83490   4.83790   4.91176   4.91877   5.00314
 Alpha virt. eigenvalues --    5.04902   5.04912   5.10761   5.21899   5.26616
 Alpha virt. eigenvalues --    5.53585   5.61438   5.76688   5.77565   7.76279
 Alpha virt. eigenvalues --    7.77717   7.80221   7.82335  17.16814  17.18059
 Alpha virt. eigenvalues --   17.19885  17.20552  17.40131  17.43495  17.44397
 Alpha virt. eigenvalues --   17.47956  17.49641  17.49734  17.53177  17.54909
 Alpha virt. eigenvalues --   23.33734  23.42942  23.48567  23.53843  23.54616
 Alpha virt. eigenvalues --   23.59028  23.64714  23.70310  23.73575  23.78267
 Alpha virt. eigenvalues --   23.78904  23.80190  23.81571  23.85867  23.86316
 Alpha virt. eigenvalues --   23.90393  23.90552  23.90964  23.91824  23.92420
 Alpha virt. eigenvalues --   23.92879  23.92971  23.97488  23.99074  24.00780
 Alpha virt. eigenvalues --   24.00995  24.02277  24.03661  24.05590  24.05846
 Alpha virt. eigenvalues --   24.09048  24.09667  24.10337  24.10842  24.10996
 Alpha virt. eigenvalues --   24.11675  24.13404  24.16729  24.18242  24.18416
 Alpha virt. eigenvalues --   24.44169  35.63495  35.83504  49.83819  49.86135
 Alpha virt. eigenvalues --   49.99564  50.01114 188.88142 188.89506 188.91657
 Alpha virt. eigenvalues --  188.93606
          Condensed to atoms (all electrons):
 Mulliken charges:
               1
     1  C   -0.283397
     2  C    0.029300
     3  C   -0.182044
     4  C   -0.187209
     5  S    0.305705
     6  C   -0.273499
     7  C    0.007460
     8  C   -0.089144
     9  C   -0.097397
    10  C    0.155782
    11  N   -0.496468
    12  C    0.091328
    13  C   -0.076750
    14  H    0.109777
    15  C   -0.090799
    16  C   -0.091049
    17  C   -0.090081
    18  C   -0.076194
    19  H    0.110123
    20  H    0.099020
    21  H    0.096506
    22  H    0.098500
    23  C    0.090601
    24  C   -0.076478
    25  C   -0.090460
    26  C   -0.091491
    27  C   -0.090686
    28  C   -0.075824
    29  H    0.110042
    30  H    0.098592
    31  H    0.096103
    32  H    0.097947
    33  H    0.109483
    34  C   -0.096369
    35  C   -0.049577
    36  H    0.093101
    37  H    0.115880
    38  H    0.117299
    39  H    0.105921
    40  C    0.009823
    41  C    0.034074
    42  H    0.094202
    43  S    0.342905
    44  C   -0.233685
    45  C   -0.008942
    46  H    0.104523
    47  C   -0.187093
    48  S    0.334516
    49  C   -0.324194
    50  C   -0.072468
    51  C    0.016056
    52  C    0.047830
    53  C   -0.367086
    54  S    0.385397
    55  C    0.453821
    56  O   -0.343099
    57  O   -0.332437
    58  C   -0.111088
    59  H    0.124587
    60  H    0.126839
    61  H    0.130066
    62  H    0.131151
    63  C    0.010488
    64  C   -0.176520
    65  C    0.054760
    66  N   -0.219094
    67  C    0.424234
    68  O   -0.290457
    69  O   -0.303582
    70  H    0.242093
    71  H    0.103589
    72  C   -0.211514
    73  H    0.123010
    74  H    0.109562
    75  H    0.110962
    76  C   -0.210361
    77  H    0.123705
    78  H    0.110114
    79  H    0.109763
 Sum of Mulliken charges =   0.00000
 Mulliken charges with hydrogens summed into heavy atoms:
               1
     1  C   -0.283397
     2  C    0.029300
     3  C   -0.182044
     4  C   -0.187209
     5  S    0.305705
     6  C   -0.273499
     7  C    0.007460
     8  C    0.016776
     9  C    0.019901
    10  C    0.155782
    11  N   -0.496468
    12  C    0.091328
    13  C    0.033027
    15  C    0.007700
    16  C    0.005457
    17  C    0.008939
    18  C    0.033929
    23  C    0.090601
    24  C    0.033005
    25  C    0.007487
    26  C    0.004611
    27  C    0.007906
    28  C    0.034218
    34  C    0.019511
    35  C    0.043524
    40  C    0.104025
    41  C    0.034074
    43  S    0.342905
    44  C   -0.233685
    45  C    0.095580
    47  C   -0.187093
    48  S    0.334516
    49  C   -0.324194
    50  C   -0.072468
    51  C    0.016056
    52  C    0.178981
    53  C   -0.367086
    54  S    0.385397
    55  C    0.453821
    56  O   -0.343099
    57  O   -0.332437
    58  C    0.270404
    63  C    0.114077
    64  C   -0.176520
    65  C    0.054760
    66  N   -0.219094
    67  C    0.424234
    68  O   -0.290457
    69  O   -0.061490
    72  C    0.132019
    76  C    0.133221
 Electronic spatial extent (au):  <R**2>=          82150.8230
 Charge=              0.0000 electrons
 Dipole moment (field-independent basis, Debye):
    X=            -13.8642    Y=             -2.6738    Z=             -4.2854  Tot=             14.7557
 Quadrupole moment (field-independent basis, Debye-Ang):
   XX=           -420.5541   YY=           -292.7507   ZZ=           -326.5403
   XY=              8.0171   XZ=            -45.3420   YZ=              5.0791
 Traceless Quadrupole moment (field-independent basis, Debye-Ang):
   XX=            -73.9391   YY=             53.8643   ZZ=             20.0748
   XY=              8.0171   XZ=            -45.3420   YZ=              5.0791
 Octapole moment (field-independent basis, Debye-Ang**2):
  XXX=          -2285.1392  YYY=            101.4724  ZZZ=            -22.1034  XYY=             34.5773
  XXY=            201.0712  XXZ=           -510.8641  XZZ=            -32.3691  YZZ=             13.6008
  YYZ=            -37.6732  XYZ=            -46.1378
 Hexadecapole moment (field-independent basis, Debye-Ang**3):
 XXXX=        -119916.4361 YYYY=          -9790.7849 ZZZZ=          -1847.0195 XXXY=           3010.8721
 XXXZ=          -5455.3319 YYYX=            897.9258 YYYZ=            -65.1770 ZZZX=           -180.7187
 ZZZY=            -29.8434 XXYY=         -17139.3248 XXZZ=         -17543.3951 YYZZ=          -2004.6911
 XXYZ=            273.9625 YYXZ=           -439.1458 ZZXY=             34.5154
 N-N= 6.387631319282D+03 E-N=-2.119243544184D+04  KE= 3.572890202954D+03
 1\1\GINC-N066\SP\RB3LYP TD-FC\6-311G(d,p)\C41H28N2O4S4\R2532\17-May-20
 21\0\\#N TD(NStates=10) B3lYP/6-311G(d,p)\\Name\\0,1\C,0,-0.012345,-2.
 980026,-0.407714\C,0,1.181844,-2.045438,-0.222401\C,0,0.7522,-0.744172
 ,0.01821\C,0,-0.678945,-0.71242,0.018957\S,0,-1.952649,0.436098,0.2346
 11\C,0,-3.166989,-0.822632,-0.024199\C,0,-4.590214,-0.504269,0.02373\C
 ,0,-5.077595,0.785619,-0.249982\C,0,-6.432593,1.072378,-0.21459\C,0,-7
 .369931,0.075781,0.10204\N,0,-8.750787,0.360996,0.139017\C,0,-9.214154
 ,1.625471,0.604336\C,0,-10.211451,2.315082,-0.096618\H,0,-10.621524,1.
 883625,-1.001624\C,0,-10.673568,3.54236,0.368124\C,0,-10.140206,4.1074
 39,1.525024\C,0,-9.143025,3.426075,2.220855\C,0,-8.687099,2.190479,1.7
 72925\H,0,-7.922238,1.658029,2.325222\H,0,-8.725837,3.850586,3.127182\
 H,0,-10.49777,5.066545,1.880804\H,0,-11.44616,4.064263,-0.185371\C,0,-
 9.697475,-0.610328,-0.296792\C,0,-9.491944,-1.320371,-1.486903\C,0,-10
 .419217,-2.268662,-1.90651\C,0,-11.570826,-2.511165,-1.159718\C,0,-11.
 782979,-1.798229,0.018937\C,0,-10.852595,-0.860168,0.45489\H,0,-11.016
 238,-0.314505,1.376158\H,0,-12.672641,-1.980152,0.611433\H,0,-12.29496
 2,-3.245179,-1.493156\H,0,-10.246749,-2.809387,-2.830429\H,0,-8.605701
 ,-1.124463,-2.078241\C,0,-6.892132,-1.215381,0.383799\C,0,-5.536667,-1
 .494682,0.34425\H,0,-5.201094,-2.491617,0.604837\H,0,-7.593124,-1.9961
 91,0.650665\H,0,-6.774959,2.072453,-0.448304\H,0,-4.386677,1.572727,-0
 .531103\C,0,-2.566632,-2.050285,-0.246603\C,0,-1.159785,-1.989277,-0.2
 20778\H,0,-3.14131,-2.943633,-0.451656\S,0,2.061887,0.356529,0.220661\
 C,0,3.231933,-0.951498,-0.037351\C,0,2.575347,-2.161542,-0.25304\H,0,3
 .115099,-3.079791,-0.447226\C,0,4.640379,-0.717411,0.02324\S,0,5.73332
 7,-2.034076,0.349049\C,0,7.181931,-1.019341,0.262279\C,0,6.7836,0.2951
 28,0.016413\C,0,5.371044,0.46985,-0.133365\C,0,5.025084,1.801268,-0.51
 772\C,0,6.119705,2.595367,-0.66224\S,0,7.647231,1.775514,-0.315112\C,0
 ,6.069008,4.017068,-1.053967\O,0,5.049654,4.62232,-1.285892\O,0,7.3036
 07,4.551046,-1.121623\C,0,7.370376,5.942741,-1.483219\H,0,6.944427,6.0
 97414,-2.475575\H,0,6.823812,6.548393,-0.759226\H,0,8.428176,6.193112,
 -1.474066\H,0,4.027359,2.172062,-0.70061\C,0,8.432625,-1.681481,0.3780
 47\C,0,9.676085,-1.205887,0.713146\C,0,9.888149,0.086727,1.261912\N,0,
 10.053217,1.127542,1.738771\C,0,10.879484,-2.097164,0.718285\O,0,11.84
 6749,-1.900768,1.397866\O,0,10.816483,-3.192706,-0.094466\H,0,10.13272
 6,-3.071141,-0.762969\H,0,8.379649,-2.754691,0.20737\C,0,-0.027915,-3.
 601173,-1.821045\H,0,-0.007959,-2.826361,-2.589895\H,0,0.839207,-4.251
 575,-1.964513\H,0,-0.928742,-4.203986,-1.963969\C,0,-0.040437,-4.08515
 6,0.669821\H,0,-0.025893,-3.65535,1.673304\H,0,-0.943515,-4.693214,0.5
 69463\H,0,0.824494,-4.745968,0.565774\\Version=ES64L-G09RevD.01\State=
 1-A\HF=-3582.9258362\RMSD=4.680e-09\PG=C01 [X(C41H28N2O4S4)]\\@


 MOST BUREAUCRACIES FUNCTION LIKE A SEPTIC TANK.
 THE LARGE CHUNKS RISE TO THE TOP.
 Job cpu time:       0 days  6 hours 12 minutes 10.0 seconds.
 File lengths (MBytes):  RWF=   3014 Int=      0 D2E=      0 Chk=    438 Scr=      1
 Normal termination of Gaussian 09 at Mon May 17 15:49:24 2021.
