 Entering Gaussian System, Link 0=/usr/local/apps//g09/g09
 Input=MO.com
 Output=MO.out
 Initial command:
 /usr/local/apps//g09/l1.exe "/tmp/bnp.467170.sequoia/Gau-14055.inp" -scrdir="/tmp/bnp.467170.sequoia/"
 Entering Link 1 = /usr/local/apps//g09/l1.exe PID=     14056.
  
 Copyright (c) 1988,1990,1992,1993,1995,1998,2003,2009,2013,
            Gaussian, Inc.  All Rights Reserved.
  
 This is part of the Gaussian(R) 09 program.  It is based on
 the Gaussian(R) 03 system (copyright 2003, Gaussian, Inc.),
 the Gaussian(R) 98 system (copyright 1998, Gaussian, Inc.),
 the Gaussian(R) 94 system (copyright 1995, Gaussian, Inc.),
 the Gaussian 92(TM) system (copyright 1992, Gaussian, Inc.),
 the Gaussian 90(TM) system (copyright 1990, Gaussian, Inc.),
 the Gaussian 88(TM) system (copyright 1988, Gaussian, Inc.),
 the Gaussian 86(TM) system (copyright 1986, Carnegie Mellon
 University), and the Gaussian 82(TM) system (copyright 1983,
 Carnegie Mellon University). Gaussian is a federally registered
 trademark of Gaussian, Inc.
  
 This software contains proprietary and confidential information,
 including trade secrets, belonging to Gaussian, Inc.
  
 This software is provided under written license and may be
 used, copied, transmitted, or stored only in accord with that
 written license.
  
 The following legend is applicable only to US Government
 contracts under FAR:
  
                    RESTRICTED RIGHTS LEGEND
  
 Use, reproduction and disclosure by the US Government is
 subject to restrictions as set forth in subparagraphs (a)
 and (c) of the Commercial Computer Software - Restricted
 Rights clause in FAR 52.227-19.
  
 Gaussian, Inc.
 340 Quinnipiac St., Bldg. 40, Wallingford CT 06492
  
  
 ---------------------------------------------------------------
 Warning -- This program may not be used in any manner that
 competes with the business of Gaussian, Inc. or will provide
 assistance to any competitor of Gaussian, Inc.  The licensee
 of this program is prohibited from giving any competitor of
 Gaussian, Inc. access to this program.  By using this program,
 the user acknowledges that Gaussian, Inc. is engaged in the
 business of creating and licensing software in the field of
 computational chemistry and represents and warrants to the
 licensee that it is not a competitor of Gaussian, Inc. and that
 it will not use this program in any manner prohibited above.
 ---------------------------------------------------------------
  

 Cite this work as:
 Gaussian 09, Revision D.01,
 M. J. Frisch, G. W. Trucks, H. B. Schlegel, G. E. Scuseria, 
 M. A. Robb, J. R. Cheeseman, G. Scalmani, V. Barone, B. Mennucci, 
 G. A. Petersson, H. Nakatsuji, M. Caricato, X. Li, H. P. Hratchian, 
 A. F. Izmaylov, J. Bloino, G. Zheng, J. L. Sonnenberg, M. Hada, 
 M. Ehara, K. Toyota, R. Fukuda, J. Hasegawa, M. Ishida, T. Nakajima, 
 Y. Honda, O. Kitao, H. Nakai, T. Vreven, J. A. Montgomery, Jr., 
 J. E. Peralta, F. Ogliaro, M. Bearpark, J. J. Heyd, E. Brothers, 
 K. N. Kudin, V. N. Staroverov, T. Keith, R. Kobayashi, J. Normand, 
 K. Raghavachari, A. Rendell, J. C. Burant, S. S. Iyengar, J. Tomasi, 
 M. Cossi, N. Rega, J. M. Millam, M. Klene, J. E. Knox, J. B. Cross, 
 V. Bakken, C. Adamo, J. Jaramillo, R. Gomperts, R. E. Stratmann, 
 O. Yazyev, A. J. Austin, R. Cammi, C. Pomelli, J. W. Ochterski, 
 R. L. Martin, K. Morokuma, V. G. Zakrzewski, G. A. Voth, 
 P. Salvador, J. J. Dannenberg, S. Dapprich, A. D. Daniels, 
 O. Farkas, J. B. Foresman, J. V. Ortiz, J. Cioslowski, 
 and D. J. Fox, Gaussian, Inc., Wallingford CT, 2013.
 
 ******************************************
 Gaussian 09:  ES64L-G09RevD.01 24-Apr-2013
                16-May-2021 
 ******************************************
 %mem=8gb
 ----------------------------------------------------------
 #N TD(NStates=1,root=1) B3lYP/6-311G(d,p) OPT Guess=Sparse
 ----------------------------------------------------------
 1/14=-1,18=20,19=15,26=3,38=1/1,3;
 2/9=110,12=2,17=6,18=5,40=1/2;
 3/5=4,6=6,7=101,11=9,16=1,25=1,30=1,71=1,74=-5/1,2,8,3;
 4//1;
 5/5=2,38=5/2;
 8/6=1,10=2,107=1,108=1/1;
 9/8=1,15=2,41=1,42=1,70=2/14;
 10/5=4/2;
 6/7=2,8=2,9=2,10=2/1;
 7/12=6,13=5,14=1/1,2,3,16;
 1/14=-1,18=20,19=15,26=3/3(2);
 2/9=110/2;
 99//99;
 2/9=110/2;
 3/5=4,6=6,7=101,11=9,16=1,25=1,30=1,71=1,74=-5/1,2,8,3;
 4/5=5,16=3,69=1/1;
 5/5=2,38=5/2;
 8/6=1,10=2,107=1,108=1/1;
 9/8=1,15=2,41=1,42=1,49=4,70=2/14;
 10/5=4/2;
 7/12=6,13=5,14=1/1,2,3,16;
 1/14=-1,18=20,19=15,26=3/3(-8);
 2/9=110/2;
 6/7=2,8=2,9=2,10=2/1;
 99//99;
 ----
 name
 ----
 Symbolic Z-matrix:
 Charge =  0 Multiplicity = 1
 6                    -7.85487   6.02406  -0.40349 
 8                    -6.9301    5.44558   0.50729 
 6                    -6.55144   4.15151   0.3146 
 6                    -7.01308   3.3287   -0.71603 
 6                    -6.54892   2.01784  -0.81965 
 6                    -5.63931   1.50177   0.10224 
 7                    -5.1954    0.14668   0.00462 
 6                    -3.83143  -0.16641   0.01612 
 6                    -3.37685  -1.42332   0.46319 
 6                    -2.02874  -1.73047   0.4692 
 6                    -1.05804  -0.80801   0.0353 
 6                    -1.51945   0.44626  -0.40313 
 6                    -2.86594   0.76331  -0.41674 
 1                    -3.1827    1.73189  -0.78053 
 1                    -0.81097   1.17865  -0.77416 
 6                     0.35539  -1.15676   0.04023 
 16                    1.59829   0.07195   0.05968 
 6                     2.88992  -1.12803   0.04186 
 6                     2.33922  -2.39936   0.04197 
 6                     0.9337   -2.4134    0.03945 
 1                     0.35165  -3.32419   0.00432 
 1                     2.95258  -3.28684   0.02924 
 6                     4.27463  -0.72531   0.02782 
 6                     4.66333   0.61167  -0.04198 
 6                     5.99809   1.0487   -0.05879 
 6                     7.08187   0.17841  -0.0089 
 6                     6.74383  -1.21949   0.06787 
 6                     5.36506  -1.67348   0.0861 
 7                     5.25742  -3.00001   0.1624 
 16                    6.77499  -3.61312   0.20635 
 7                     7.62756  -2.21463   0.13189 
 6                     8.47963   0.52844  -0.0263 
 6                     9.11572   1.73216  -0.0983 
 6                     8.43282   2.9769   -0.21418 
 7                     7.85974   3.97801  -0.29075 
 6                     10.61293   1.84396  -0.16783 
 8                     11.17017   2.79436  -0.63991 
 8                     11.32641   0.79556   0.32049 
 1                     10.76477   0.21745   0.84941 
 1                     9.11986  -0.34882  -0.00524 
 1                     6.16939   2.11421  -0.11888 
 1                     3.89673   1.37542  -0.09279 
 1                    -1.71748  -2.69481   0.85323 
 1                    -4.09183  -2.15159   0.82293 
 6                    -6.18248  -0.88051  -0.10949 
 6                    -7.24314  -0.94913   0.79286 
 6                    -8.22611  -1.93116   0.67429 
 6                    -8.14618  -2.87624  -0.35165 
 6                    -7.08086  -2.8135   -1.25979 
 6                    -6.11918  -1.82388  -1.14572 
 1                    -5.30664  -1.77684  -1.86104 
 1                    -7.03922  -3.54581  -2.05684 
 8                    -9.0421   -3.88202  -0.55586 
 6                    -10.14042  -4.00272   0.33748 
 1                    -9.80465  -4.18371   1.36466 
 1                    -10.77721  -3.11122   0.31483 
 1                    -10.71257  -4.86124  -0.00985 
 1                    -9.03614  -1.95162   1.39075 
 1                    -7.30743  -0.2231    1.59455 
 6                    -5.19181   2.33078   1.14162 
 6                    -5.6331    3.63935   1.24094 
 1                    -5.29209   4.28604   2.04019 
 1                    -4.49192   1.94131   1.87145 
 1                    -6.90644   1.38699  -1.62476 
 1                    -7.72131   3.69391  -1.44742 
 1                    -8.0099    7.04544  -0.06037 
 1                    -7.45583   6.04221  -1.42376 
 1                    -8.81234   5.49115  -0.39674 
 

 GradGradGradGradGradGradGradGradGradGradGradGradGradGradGradGradGradGrad
 Berny optimization.
 Initialization pass.
                           ----------------------------
                           !    Initial Parameters    !
                           ! (Angstroms and Degrees)  !
 --------------------------                            --------------------------
 ! Name  Definition              Value          Derivative Info.                !
 --------------------------------------------------------------------------------
 ! R1    R(1,2)                  1.421          estimate D2E/DX2                !
 ! R2    R(1,66)                 1.0886         estimate D2E/DX2                !
 ! R3    R(1,67)                 1.0957         estimate D2E/DX2                !
 ! R4    R(1,68)                 1.0958         estimate D2E/DX2                !
 ! R5    R(2,3)                  1.362          estimate D2E/DX2                !
 ! R6    R(3,4)                  1.3973         estimate D2E/DX2                !
 ! R7    R(3,61)                 1.4013         estimate D2E/DX2                !
 ! R8    R(4,5)                  1.3945         estimate D2E/DX2                !
 ! R9    R(4,65)                 1.0816         estimate D2E/DX2                !
 ! R10   R(5,6)                  1.3941         estimate D2E/DX2                !
 ! R11   R(5,64)                 1.0835         estimate D2E/DX2                !
 ! R12   R(6,7)                  1.4293         estimate D2E/DX2                !
 ! R13   R(6,60)                 1.4028         estimate D2E/DX2                !
 ! R14   R(7,8)                  1.3995         estimate D2E/DX2                !
 ! R15   R(7,45)                 1.4291         estimate D2E/DX2                !
 ! R16   R(8,9)                  1.4094         estimate D2E/DX2                !
 ! R17   R(8,13)                 1.4085         estimate D2E/DX2                !
 ! R18   R(9,10)                 1.3827         estimate D2E/DX2                !
 ! R19   R(9,44)                 1.0821         estimate D2E/DX2                !
 ! R20   R(10,11)                1.4076         estimate D2E/DX2                !
 ! R21   R(10,43)                1.0837         estimate D2E/DX2                !
 ! R22   R(11,12)                1.4065         estimate D2E/DX2                !
 ! R23   R(11,16)                1.4558         estimate D2E/DX2                !
 ! R24   R(12,13)                1.3834         estimate D2E/DX2                !
 ! R25   R(12,15)                1.0844         estimate D2E/DX2                !
 ! R26   R(13,14)                1.0821         estimate D2E/DX2                !
 ! R27   R(16,17)                1.7478         estimate D2E/DX2                !
 ! R28   R(16,20)                1.3833         estimate D2E/DX2                !
 ! R29   R(17,18)                1.7631         estimate D2E/DX2                !
 ! R30   R(18,19)                1.3855         estimate D2E/DX2                !
 ! R31   R(18,23)                1.4422         estimate D2E/DX2                !
 ! R32   R(19,20)                1.4056         estimate D2E/DX2                !
 ! R33   R(19,22)                1.0789         estimate D2E/DX2                !
 ! R34   R(20,21)                1.0815         estimate D2E/DX2                !
 ! R35   R(23,24)                1.3941         estimate D2E/DX2                !
 ! R36   R(23,28)                1.4462         estimate D2E/DX2                !
 ! R37   R(24,25)                1.4046         estimate D2E/DX2                !
 ! R38   R(24,42)                1.0833         estimate D2E/DX2                !
 ! R39   R(25,26)                1.3908         estimate D2E/DX2                !
 ! R40   R(25,41)                1.0809         estimate D2E/DX2                !
 ! R41   R(26,27)                1.4402         estimate D2E/DX2                !
 ! R42   R(26,32)                1.441          estimate D2E/DX2                !
 ! R43   R(27,28)                1.4517         estimate D2E/DX2                !
 ! R44   R(27,31)                1.3324         estimate D2E/DX2                !
 ! R45   R(28,29)                1.3331         estimate D2E/DX2                !
 ! R46   R(29,30)                1.6373         estimate D2E/DX2                !
 ! R47   R(30,31)                1.6396         estimate D2E/DX2                !
 ! R48   R(32,33)                1.3634         estimate D2E/DX2                !
 ! R49   R(32,40)                1.0862         estimate D2E/DX2                !
 ! R50   R(33,34)                1.4245         estimate D2E/DX2                !
 ! R51   R(33,36)                1.503          estimate D2E/DX2                !
 ! R52   R(34,35)                1.1561         estimate D2E/DX2                !
 ! R53   R(36,37)                1.1986         estimate D2E/DX2                !
 ! R54   R(36,38)                1.3589         estimate D2E/DX2                !
 ! R55   R(38,39)                0.9641         estimate D2E/DX2                !
 ! R56   R(45,46)                1.3942         estimate D2E/DX2                !
 ! R57   R(45,50)                1.4028         estimate D2E/DX2                !
 ! R58   R(46,47)                1.3945         estimate D2E/DX2                !
 ! R59   R(46,59)                1.0835         estimate D2E/DX2                !
 ! R60   R(47,48)                1.3972         estimate D2E/DX2                !
 ! R61   R(47,58)                1.0816         estimate D2E/DX2                !
 ! R62   R(48,49)                1.4013         estimate D2E/DX2                !
 ! R63   R(48,53)                1.3623         estimate D2E/DX2                !
 ! R64   R(49,50)                1.3846         estimate D2E/DX2                !
 ! R65   R(49,52)                1.0832         estimate D2E/DX2                !
 ! R66   R(50,51)                1.0836         estimate D2E/DX2                !
 ! R67   R(53,54)                1.4209         estimate D2E/DX2                !
 ! R68   R(54,55)                1.0957         estimate D2E/DX2                !
 ! R69   R(54,56)                1.0958         estimate D2E/DX2                !
 ! R70   R(54,57)                1.0886         estimate D2E/DX2                !
 ! R71   R(60,61)                1.3845         estimate D2E/DX2                !
 ! R72   R(60,63)                1.0836         estimate D2E/DX2                !
 ! R73   R(61,62)                1.0832         estimate D2E/DX2                !
 ! A1    A(2,1,66)             105.8203         estimate D2E/DX2                !
 ! A2    A(2,1,67)             111.503          estimate D2E/DX2                !
 ! A3    A(2,1,68)             111.5123         estimate D2E/DX2                !
 ! A4    A(66,1,67)            109.2588         estimate D2E/DX2                !
 ! A5    A(66,1,68)            109.2638         estimate D2E/DX2                !
 ! A6    A(67,1,68)            109.3904         estimate D2E/DX2                !
 ! A7    A(1,2,3)              118.4912         estimate D2E/DX2                !
 ! A8    A(2,3,4)              124.889          estimate D2E/DX2                !
 ! A9    A(2,3,61)             115.8436         estimate D2E/DX2                !
 ! A10   A(4,3,61)             119.267          estimate D2E/DX2                !
 ! A11   A(3,4,5)              119.8945         estimate D2E/DX2                !
 ! A12   A(3,4,65)             121.0826         estimate D2E/DX2                !
 ! A13   A(5,4,65)             119.0199         estimate D2E/DX2                !
 ! A14   A(4,5,6)              121.0657         estimate D2E/DX2                !
 ! A15   A(4,5,64)             119.5185         estimate D2E/DX2                !
 ! A16   A(6,5,64)             119.414          estimate D2E/DX2                !
 ! A17   A(5,6,7)              120.5594         estimate D2E/DX2                !
 ! A18   A(5,6,60)             118.6416         estimate D2E/DX2                !
 ! A19   A(7,6,60)             120.7857         estimate D2E/DX2                !
 ! A20   A(6,7,8)              120.9464         estimate D2E/DX2                !
 ! A21   A(6,7,45)             118.1884         estimate D2E/DX2                !
 ! A22   A(8,7,45)             120.8649         estimate D2E/DX2                !
 ! A23   A(7,8,9)              121.0959         estimate D2E/DX2                !
 ! A24   A(7,8,13)             121.1901         estimate D2E/DX2                !
 ! A25   A(9,8,13)             117.714          estimate D2E/DX2                !
 ! A26   A(8,9,10)             120.9286         estimate D2E/DX2                !
 ! A27   A(8,9,44)             119.5079         estimate D2E/DX2                !
 ! A28   A(10,9,44)            119.5549         estimate D2E/DX2                !
 ! A29   A(9,10,11)            121.6978         estimate D2E/DX2                !
 ! A30   A(9,10,43)            118.6385         estimate D2E/DX2                !
 ! A31   A(11,10,43)           119.6253         estimate D2E/DX2                !
 ! A32   A(10,11,12)           117.0166         estimate D2E/DX2                !
 ! A33   A(10,11,16)           120.7625         estimate D2E/DX2                !
 ! A34   A(12,11,16)           122.2201         estimate D2E/DX2                !
 ! A35   A(11,12,13)           121.7856         estimate D2E/DX2                !
 ! A36   A(11,12,15)           119.6428         estimate D2E/DX2                !
 ! A37   A(13,12,15)           118.538          estimate D2E/DX2                !
 ! A38   A(8,13,12)            120.8564         estimate D2E/DX2                !
 ! A39   A(8,13,14)            119.5712         estimate D2E/DX2                !
 ! A40   A(12,13,14)           119.564          estimate D2E/DX2                !
 ! A41   A(11,16,17)           121.4691         estimate D2E/DX2                !
 ! A42   A(11,16,20)           128.5722         estimate D2E/DX2                !
 ! A43   A(17,16,20)           109.9576         estimate D2E/DX2                !
 ! A44   A(16,17,18)            92.4292         estimate D2E/DX2                !
 ! A45   A(17,18,19)           109.4717         estimate D2E/DX2                !
 ! A46   A(17,18,23)           120.8935         estimate D2E/DX2                !
 ! A47   A(19,18,23)           129.6347         estimate D2E/DX2                !
 ! A48   A(18,19,20)           113.9928         estimate D2E/DX2                !
 ! A49   A(18,19,22)           121.9277         estimate D2E/DX2                !
 ! A50   A(20,19,22)           124.0726         estimate D2E/DX2                !
 ! A51   A(16,20,19)           114.1399         estimate D2E/DX2                !
 ! A52   A(16,20,21)           122.6884         estimate D2E/DX2                !
 ! A53   A(19,20,21)           123.1376         estimate D2E/DX2                !
 ! A54   A(18,23,24)           122.4125         estimate D2E/DX2                !
 ! A55   A(18,23,28)           122.717          estimate D2E/DX2                !
 ! A56   A(24,23,28)           114.8705         estimate D2E/DX2                !
 ! A57   A(23,24,25)           124.3296         estimate D2E/DX2                !
 ! A58   A(23,24,42)           118.7629         estimate D2E/DX2                !
 ! A59   A(25,24,42)           116.9065         estimate D2E/DX2                !
 ! A60   A(24,25,26)           123.0496         estimate D2E/DX2                !
 ! A61   A(24,25,41)           117.2576         estimate D2E/DX2                !
 ! A62   A(26,25,41)           119.6919         estimate D2E/DX2                !
 ! A63   A(25,26,27)           115.2359         estimate D2E/DX2                !
 ! A64   A(25,26,32)           127.1141         estimate D2E/DX2                !
 ! A65   A(27,26,32)           117.6501         estimate D2E/DX2                !
 ! A66   A(26,27,28)           121.8114         estimate D2E/DX2                !
 ! A67   A(26,27,31)           124.8754         estimate D2E/DX2                !
 ! A68   A(28,27,31)           113.313          estimate D2E/DX2                !
 ! A69   A(23,28,27)           120.7025         estimate D2E/DX2                !
 ! A70   A(23,28,29)           126.43           estimate D2E/DX2                !
 ! A71   A(27,28,29)           112.8673         estimate D2E/DX2                !
 ! A72   A(28,29,30)           107.4165         estimate D2E/DX2                !
 ! A73   A(29,30,31)            99.2848         estimate D2E/DX2                !
 ! A74   A(27,31,30)           107.1182         estimate D2E/DX2                !
 ! A75   A(26,32,33)           131.886          estimate D2E/DX2                !
 ! A76   A(26,32,40)           112.0427         estimate D2E/DX2                !
 ! A77   A(33,32,40)           116.0453         estimate D2E/DX2                !
 ! A78   A(32,33,34)           123.5131         estimate D2E/DX2                !
 ! A79   A(32,33,36)           122.2008         estimate D2E/DX2                !
 ! A80   A(34,33,36)           114.1292         estimate D2E/DX2                !
 ! A81   A(33,36,37)           122.7058         estimate D2E/DX2                !
 ! A82   A(33,36,38)           116.6794         estimate D2E/DX2                !
 ! A83   A(37,36,38)           120.6096         estimate D2E/DX2                !
 ! A84   A(36,38,39)           110.7274         estimate D2E/DX2                !
 ! A85   A(7,45,46)            120.6057         estimate D2E/DX2                !
 ! A86   A(7,45,50)            120.7417         estimate D2E/DX2                !
 ! A87   A(46,45,50)           118.6411         estimate D2E/DX2                !
 ! A88   A(45,46,47)           121.0553         estimate D2E/DX2                !
 ! A89   A(45,46,59)           119.4078         estimate D2E/DX2                !
 ! A90   A(47,46,59)           119.5355         estimate D2E/DX2                !
 ! A91   A(46,47,48)           119.8972         estimate D2E/DX2                !
 ! A92   A(46,47,58)           119.0063         estimate D2E/DX2                !
 ! A93   A(48,47,58)           121.0935         estimate D2E/DX2                !
 ! A94   A(47,48,49)           119.2805         estimate D2E/DX2                !
 ! A95   A(47,48,53)           124.8781         estimate D2E/DX2                !
 ! A96   A(49,48,53)           115.8411         estimate D2E/DX2                !
 ! A97   A(48,49,50)           120.4404         estimate D2E/DX2                !
 ! A98   A(48,49,52)           118.4133         estimate D2E/DX2                !
 ! A99   A(50,49,52)           121.1396         estimate D2E/DX2                !
 ! A100  A(45,50,49)           120.675          estimate D2E/DX2                !
 ! A101  A(45,50,51)           119.4926         estimate D2E/DX2                !
 ! A102  A(49,50,51)           119.8322         estimate D2E/DX2                !
 ! A103  A(48,53,54)           118.4768         estimate D2E/DX2                !
 ! A104  A(53,54,55)           111.503          estimate D2E/DX2                !
 ! A105  A(53,54,56)           111.5367         estimate D2E/DX2                !
 ! A106  A(53,54,57)           105.8227         estimate D2E/DX2                !
 ! A107  A(55,54,56)           109.3802         estimate D2E/DX2                !
 ! A108  A(55,54,57)           109.2619         estimate D2E/DX2                !
 ! A109  A(56,54,57)           109.2436         estimate D2E/DX2                !
 ! A110  A(6,60,61)            120.6651         estimate D2E/DX2                !
 ! A111  A(6,60,63)            119.5166         estimate D2E/DX2                !
 ! A112  A(61,60,63)           119.8182         estimate D2E/DX2                !
 ! A113  A(3,61,60)            120.4561         estimate D2E/DX2                !
 ! A114  A(3,61,62)            118.4156         estimate D2E/DX2                !
 ! A115  A(60,61,62)           121.1217         estimate D2E/DX2                !
 ! A116  L(33,34,35,7,-1)      178.931          estimate D2E/DX2                !
 ! A117  L(33,34,35,7,-2)      179.1334         estimate D2E/DX2                !
 ! D1    D(66,1,2,3)           179.961          estimate D2E/DX2                !
 ! D2    D(67,1,2,3)           -61.347          estimate D2E/DX2                !
 ! D3    D(68,1,2,3)            61.2581         estimate D2E/DX2                !
 ! D4    D(1,2,3,4)             -0.5385         estimate D2E/DX2                !
 ! D5    D(1,2,3,61)           179.7015         estimate D2E/DX2                !
 ! D6    D(2,3,4,5)            179.6515         estimate D2E/DX2                !
 ! D7    D(2,3,4,65)             0.2989         estimate D2E/DX2                !
 ! D8    D(61,3,4,5)            -0.5961         estimate D2E/DX2                !
 ! D9    D(61,3,4,65)         -179.9488         estimate D2E/DX2                !
 ! D10   D(2,3,61,60)          179.4622         estimate D2E/DX2                !
 ! D11   D(2,3,61,62)            0.3889         estimate D2E/DX2                !
 ! D12   D(4,3,61,60)           -0.3121         estimate D2E/DX2                !
 ! D13   D(4,3,61,62)         -179.3854         estimate D2E/DX2                !
 ! D14   D(3,4,5,6)              0.8578         estimate D2E/DX2                !
 ! D15   D(3,4,5,64)          -179.6328         estimate D2E/DX2                !
 ! D16   D(65,4,5,6)          -179.7762         estimate D2E/DX2                !
 ! D17   D(65,4,5,64)           -0.2667         estimate D2E/DX2                !
 ! D18   D(4,5,6,7)            178.4799         estimate D2E/DX2                !
 ! D19   D(4,5,6,60)            -0.2026         estimate D2E/DX2                !
 ! D20   D(64,5,6,7)            -1.0301         estimate D2E/DX2                !
 ! D21   D(64,5,6,60)         -179.7125         estimate D2E/DX2                !
 ! D22   D(5,6,7,8)            128.7932         estimate D2E/DX2                !
 ! D23   D(5,6,7,45)           -51.0092         estimate D2E/DX2                !
 ! D24   D(60,6,7,8)           -52.5528         estimate D2E/DX2                !
 ! D25   D(60,6,7,45)          127.6448         estimate D2E/DX2                !
 ! D26   D(5,6,60,61)           -0.7153         estimate D2E/DX2                !
 ! D27   D(5,6,60,63)          179.4291         estimate D2E/DX2                !
 ! D28   D(7,6,60,61)         -179.3947         estimate D2E/DX2                !
 ! D29   D(7,6,60,63)            0.7497         estimate D2E/DX2                !
 ! D30   D(6,7,8,9)            153.7101         estimate D2E/DX2                !
 ! D31   D(6,7,8,13)           -26.2118         estimate D2E/DX2                !
 ! D32   D(45,7,8,9)           -26.4928         estimate D2E/DX2                !
 ! D33   D(45,7,8,13)          153.5853         estimate D2E/DX2                !
 ! D34   D(6,7,45,46)          -51.3006         estimate D2E/DX2                !
 ! D35   D(6,7,45,50)          127.4476         estimate D2E/DX2                !
 ! D36   D(8,7,45,46)          128.8968         estimate D2E/DX2                !
 ! D37   D(8,7,45,50)          -52.355          estimate D2E/DX2                !
 ! D38   D(7,8,9,10)           179.7982         estimate D2E/DX2                !
 ! D39   D(7,8,9,44)            -1.2789         estimate D2E/DX2                !
 ! D40   D(13,8,9,10)           -0.2773         estimate D2E/DX2                !
 ! D41   D(13,8,9,44)          178.6456         estimate D2E/DX2                !
 ! D42   D(7,8,13,12)         -179.9639         estimate D2E/DX2                !
 ! D43   D(7,8,13,14)           -1.0188         estimate D2E/DX2                !
 ! D44   D(9,8,13,12)            0.1117         estimate D2E/DX2                !
 ! D45   D(9,8,13,14)          179.0568         estimate D2E/DX2                !
 ! D46   D(8,9,10,11)            0.1375         estimate D2E/DX2                !
 ! D47   D(8,9,10,43)          177.8761         estimate D2E/DX2                !
 ! D48   D(44,9,10,11)        -178.785          estimate D2E/DX2                !
 ! D49   D(44,9,10,43)          -1.0463         estimate D2E/DX2                !
 ! D50   D(9,10,11,12)           0.1681         estimate D2E/DX2                !
 ! D51   D(9,10,11,16)        -179.5054         estimate D2E/DX2                !
 ! D52   D(43,10,11,12)       -177.5487         estimate D2E/DX2                !
 ! D53   D(43,10,11,16)          2.7778         estimate D2E/DX2                !
 ! D54   D(10,11,12,13)         -0.3362         estimate D2E/DX2                !
 ! D55   D(10,11,12,15)       -178.1966         estimate D2E/DX2                !
 ! D56   D(16,11,12,13)        179.3322         estimate D2E/DX2                !
 ! D57   D(16,11,12,15)          1.4718         estimate D2E/DX2                !
 ! D58   D(10,11,16,17)       -158.2264         estimate D2E/DX2                !
 ! D59   D(10,11,16,20)         21.3414         estimate D2E/DX2                !
 ! D60   D(12,11,16,17)         22.1175         estimate D2E/DX2                !
 ! D61   D(12,11,16,20)       -158.3147         estimate D2E/DX2                !
 ! D62   D(11,12,13,8)           0.1997         estimate D2E/DX2                !
 ! D63   D(11,12,13,14)       -178.7454         estimate D2E/DX2                !
 ! D64   D(15,12,13,8)         178.0829         estimate D2E/DX2                !
 ! D65   D(15,12,13,14)         -0.8622         estimate D2E/DX2                !
 ! D66   D(11,16,17,18)       -179.556          estimate D2E/DX2                !
 ! D67   D(20,16,17,18)          0.8035         estimate D2E/DX2                !
 ! D68   D(11,16,20,19)        179.853          estimate D2E/DX2                !
 ! D69   D(11,16,20,21)          1.9164         estimate D2E/DX2                !
 ! D70   D(17,16,20,19)         -0.5392         estimate D2E/DX2                !
 ! D71   D(17,16,20,21)       -178.4758         estimate D2E/DX2                !
 ! D72   D(16,17,18,19)         -0.872          estimate D2E/DX2                !
 ! D73   D(16,17,18,23)        179.0341         estimate D2E/DX2                !
 ! D74   D(17,18,19,20)          0.7301         estimate D2E/DX2                !
 ! D75   D(17,18,19,22)        179.8164         estimate D2E/DX2                !
 ! D76   D(23,18,19,20)       -179.1653         estimate D2E/DX2                !
 ! D77   D(23,18,19,22)         -0.079          estimate D2E/DX2                !
 ! D78   D(17,18,23,24)         -3.3869         estimate D2E/DX2                !
 ! D79   D(17,18,23,28)        176.5548         estimate D2E/DX2                !
 ! D80   D(19,18,23,24)        176.4982         estimate D2E/DX2                !
 ! D81   D(19,18,23,28)         -3.5601         estimate D2E/DX2                !
 ! D82   D(18,19,20,16)         -0.1323         estimate D2E/DX2                !
 ! D83   D(18,19,20,21)        177.7938         estimate D2E/DX2                !
 ! D84   D(22,19,20,16)       -179.1961         estimate D2E/DX2                !
 ! D85   D(22,19,20,21)         -1.27           estimate D2E/DX2                !
 ! D86   D(18,23,24,25)       -179.9673         estimate D2E/DX2                !
 ! D87   D(18,23,24,42)         -0.3307         estimate D2E/DX2                !
 ! D88   D(28,23,24,25)          0.0867         estimate D2E/DX2                !
 ! D89   D(28,23,24,42)        179.7233         estimate D2E/DX2                !
 ! D90   D(18,23,28,27)        179.938          estimate D2E/DX2                !
 ! D91   D(18,23,28,29)         -0.2265         estimate D2E/DX2                !
 ! D92   D(24,23,28,27)         -0.1162         estimate D2E/DX2                !
 ! D93   D(24,23,28,29)        179.7193         estimate D2E/DX2                !
 ! D94   D(23,24,25,26)          0.1069         estimate D2E/DX2                !
 ! D95   D(23,24,25,41)        179.7757         estimate D2E/DX2                !
 ! D96   D(42,24,25,26)       -179.5359         estimate D2E/DX2                !
 ! D97   D(42,24,25,41)          0.133          estimate D2E/DX2                !
 ! D98   D(24,25,26,27)         -0.2518         estimate D2E/DX2                !
 ! D99   D(24,25,26,32)        179.7324         estimate D2E/DX2                !
 ! D100  D(41,25,26,27)       -179.9129         estimate D2E/DX2                !
 ! D101  D(41,25,26,32)          0.0713         estimate D2E/DX2                !
 ! D102  D(25,26,27,28)          0.215          estimate D2E/DX2                !
 ! D103  D(25,26,27,31)       -179.6055         estimate D2E/DX2                !
 ! D104  D(32,26,27,28)       -179.7708         estimate D2E/DX2                !
 ! D105  D(32,26,27,31)          0.4087         estimate D2E/DX2                !
 ! D106  D(25,26,32,33)         -0.3431         estimate D2E/DX2                !
 ! D107  D(25,26,32,40)       -178.3761         estimate D2E/DX2                !
 ! D108  D(27,26,32,33)        179.6408         estimate D2E/DX2                !
 ! D109  D(27,26,32,40)          1.6078         estimate D2E/DX2                !
 ! D110  D(26,27,28,23)         -0.0351         estimate D2E/DX2                !
 ! D111  D(26,27,28,29)       -179.8915         estimate D2E/DX2                !
 ! D112  D(31,27,28,23)        179.8046         estimate D2E/DX2                !
 ! D113  D(31,27,28,29)         -0.0518         estimate D2E/DX2                !
 ! D114  D(26,27,31,30)        179.9286         estimate D2E/DX2                !
 ! D115  D(28,27,31,30)          0.0947         estimate D2E/DX2                !
 ! D116  D(23,28,29,30)       -179.8656         estimate D2E/DX2                !
 ! D117  D(27,28,29,30)         -0.0191         estimate D2E/DX2                !
 ! D118  D(28,29,30,31)          0.0664         estimate D2E/DX2                !
 ! D119  D(29,30,31,27)         -0.0951         estimate D2E/DX2                !
 ! D120  D(26,32,33,34)         -1.8073         estimate D2E/DX2                !
 ! D121  D(26,32,33,36)       -176.9842         estimate D2E/DX2                !
 ! D122  D(40,32,33,34)        176.1634         estimate D2E/DX2                !
 ! D123  D(40,32,33,36)          0.9865         estimate D2E/DX2                !
 ! D124  D(32,33,36,37)        155.8797         estimate D2E/DX2                !
 ! D125  D(32,33,36,38)        -23.297          estimate D2E/DX2                !
 ! D126  D(34,33,36,37)        -19.7148         estimate D2E/DX2                !
 ! D127  D(34,33,36,38)        161.1085         estimate D2E/DX2                !
 ! D128  D(33,36,38,39)        -14.4569         estimate D2E/DX2                !
 ! D129  D(37,36,38,39)        166.348          estimate D2E/DX2                !
 ! D130  D(7,45,46,47)         178.7021         estimate D2E/DX2                !
 ! D131  D(7,45,46,59)          -0.8672         estimate D2E/DX2                !
 ! D132  D(50,45,46,47)         -0.072          estimate D2E/DX2                !
 ! D133  D(50,45,46,59)       -179.6413         estimate D2E/DX2                !
 ! D134  D(7,45,50,49)        -179.599          estimate D2E/DX2                !
 ! D135  D(7,45,50,51)           0.5756         estimate D2E/DX2                !
 ! D136  D(46,45,50,49)         -0.8266         estimate D2E/DX2                !
 ! D137  D(46,45,50,51)        179.348          estimate D2E/DX2                !
 ! D138  D(45,46,47,48)          0.8294         estimate D2E/DX2                !
 ! D139  D(45,46,47,58)       -179.7917         estimate D2E/DX2                !
 ! D140  D(59,46,47,48)       -179.6019         estimate D2E/DX2                !
 ! D141  D(59,46,47,58)         -0.223          estimate D2E/DX2                !
 ! D142  D(46,47,48,49)         -0.6904         estimate D2E/DX2                !
 ! D143  D(46,47,48,53)        179.5191         estimate D2E/DX2                !
 ! D144  D(58,47,48,49)        179.9439         estimate D2E/DX2                !
 ! D145  D(58,47,48,53)          0.1534         estimate D2E/DX2                !
 ! D146  D(47,48,49,50)         -0.1985         estimate D2E/DX2                !
 ! D147  D(47,48,49,52)       -179.2659         estimate D2E/DX2                !
 ! D148  D(53,48,49,50)        179.6105         estimate D2E/DX2                !
 ! D149  D(53,48,49,52)          0.5431         estimate D2E/DX2                !
 ! D150  D(47,48,53,54)         -0.5812         estimate D2E/DX2                !
 ! D151  D(49,48,53,54)        179.6219         estimate D2E/DX2                !
 ! D152  D(48,49,50,45)          0.9668         estimate D2E/DX2                !
 ! D153  D(48,49,50,51)       -179.2083         estimate D2E/DX2                !
 ! D154  D(52,49,50,45)       -179.9915         estimate D2E/DX2                !
 ! D155  D(52,49,50,51)         -0.1666         estimate D2E/DX2                !
 ! D156  D(48,53,54,55)        -61.1299         estimate D2E/DX2                !
 ! D157  D(48,53,54,56)         61.4795         estimate D2E/DX2                !
 ! D158  D(48,53,54,57)       -179.8271         estimate D2E/DX2                !
 ! D159  D(6,60,61,3)            0.9769         estimate D2E/DX2                !
 ! D160  D(6,60,61,62)        -179.9751         estimate D2E/DX2                !
 ! D161  D(63,60,61,3)        -179.1679         estimate D2E/DX2                !
 ! D162  D(63,60,61,62)         -0.1199         estimate D2E/DX2                !
 --------------------------------------------------------------------------------
 Trust Radius=3.00D-01 FncErr=1.00D-07 GrdErr=1.00D-06
 Number of steps in this run=    362 maximum allowed number of steps=    408.
 GradGradGradGradGradGradGradGradGradGradGradGradGradGradGradGradGradGrad

 Stoichiometry    C34H24N4O4S2
 Framework group  C1[X(C34H24N4O4S2)]
 Deg. of freedom   198
 Full point group                 C1      NOp   1
 Largest Abelian subgroup         C1      NOp   1
 Largest concise Abelian subgroup C1      NOp   1
                         Standard orientation:                         
 ---------------------------------------------------------------------
 Center     Atomic      Atomic             Coordinates (Angstroms)
 Number     Number       Type             X           Y           Z
 ---------------------------------------------------------------------
      1          6           0        7.854865    6.024058    0.403487
      2          8           0        6.930098    5.445576   -0.507285
      3          6           0        6.551439    4.151509   -0.314600
      4          6           0        7.013084    3.328698    0.716028
      5          6           0        6.548922    2.017843    0.819648
      6          6           0        5.639310    1.501770   -0.102244
      7          7           0        5.195402    0.146676   -0.004616
      8          6           0        3.831426   -0.166409   -0.016121
      9          6           0        3.376849   -1.423317   -0.463194
     10          6           0        2.028745   -1.730473   -0.469197
     11          6           0        1.058040   -0.808007   -0.035304
     12          6           0        1.519446    0.446258    0.403126
     13          6           0        2.865936    0.763307    0.416735
     14          1           0        3.182701    1.731893    0.780526
     15          1           0        0.810972    1.178648    0.774162
     16          6           0       -0.355386   -1.156756   -0.040233
     17         16           0       -1.598290    0.071945   -0.059677
     18          6           0       -2.889919   -1.128032   -0.041858
     19          6           0       -2.339225   -2.399356   -0.041965
     20          6           0       -0.933701   -2.413395   -0.039446
     21          1           0       -0.351646   -3.324188   -0.004324
     22          1           0       -2.952581   -3.286838   -0.029235
     23          6           0       -4.274635   -0.725308   -0.027824
     24          6           0       -4.663327    0.611667    0.041976
     25          6           0       -5.998093    1.048696    0.058794
     26          6           0       -7.081872    0.178411    0.008897
     27          6           0       -6.743828   -1.219490   -0.067869
     28          6           0       -5.365060   -1.673476   -0.086099
     29          7           0       -5.257420   -3.000011   -0.162402
     30         16           0       -6.774991   -3.613123   -0.206354
     31          7           0       -7.627557   -2.214635   -0.131885
     32          6           0       -8.479634    0.528438    0.026300
     33          6           0       -9.115721    1.732156    0.098297
     34          6           0       -8.432816    2.976899    0.214181
     35          7           0       -7.859740    3.978005    0.290750
     36          6           0      -10.612934    1.843960    0.167833
     37          8           0      -11.170170    2.794364    0.639908
     38          8           0      -11.326407    0.795559   -0.320491
     39          1           0      -10.764773    0.217454   -0.849414
     40          1           0       -9.119864   -0.348824    0.005237
     41          1           0       -6.169390    2.114206    0.118876
     42          1           0       -3.896732    1.375424    0.092792
     43          1           0        1.717481   -2.694805   -0.853227
     44          1           0        4.091832   -2.151590   -0.822929
     45          6           0        6.182485   -0.880510    0.109488
     46          6           0        7.243138   -0.949132   -0.792860
     47          6           0        8.226109   -1.931155   -0.674294
     48          6           0        8.146178   -2.876241    0.351647
     49          6           0        7.080856   -2.813495    1.259788
     50          6           0        6.119176   -1.823881    1.145719
     51          1           0        5.306643   -1.776838    1.861042
     52          1           0        7.039224   -3.545811    2.056842
     53          8           0        9.042096   -3.882022    0.555863
     54          6           0       10.140418   -4.002717   -0.337475
     55          1           0        9.804647   -4.183713   -1.364656
     56          1           0       10.777211   -3.111220   -0.314833
     57          1           0       10.712574   -4.861240    0.009852
     58          1           0        9.036138   -1.951624   -1.390748
     59          1           0        7.307425   -0.223104   -1.594546
     60          6           0        5.191810    2.330782   -1.141623
     61          6           0        5.633098    3.639345   -1.240941
     62          1           0        5.292087    4.286042   -2.040189
     63          1           0        4.491923    1.941314   -1.871452
     64          1           0        6.906439    1.386992    1.624756
     65          1           0        7.721313    3.693910    1.447422
     66          1           0        8.009898    7.045443    0.060366
     67          1           0        7.455829    6.042205    1.423759
     68          1           0        8.812336    5.491153    0.396740
 ---------------------------------------------------------------------
 Rotational constants (GHZ):      0.1203711      0.0186880      0.0163501
 Standard basis: 6-311G(d,p) (5D, 7F)
 There are   996 symmetry adapted cartesian basis functions of A   symmetry.
 There are   952 symmetry adapted basis functions of A   symmetry.
   952 basis functions,  1628 primitive gaussians,   996 cartesian basis functions
   160 alpha electrons      160 beta electrons
       nuclear repulsion energy      4738.9108146799 Hartrees.
 NAtoms=   68 NActive=   68 NUniq=   68 SFac= 1.00D+00 NAtFMM=   60 NAOKFM=T Big=T
 Integral buffers will be    131072 words long.
 Regular integral format.
 Two-electron integral symmetry is turned on.
 One-electron integrals computed using PRISM.
 NBasis=   952 RedAO= T EigKep=  1.21D-04  NBF=   952
 NBsUse=   952 1.00D-06 EigRej= -1.00D+00 NBFU=   952
 ExpMin= 7.71D-02 ExpMax= 9.34D+04 ExpMxC= 3.17D+03 IAcc=2 IRadAn=         4 AccDes= 0.00D+00
 Harris functional with IExCor=  402 and IRadAn=       4 diagonalized for initial guess.
 HarFok:  IExCor=  402 AccDes= 0.00D+00 IRadAn=         4 IDoV= 1 UseB2=F ITyADJ=14
 ICtDFT=  3500011 ScaDFX=  1.000000  1.000000  1.000000  1.000000
 FoFCou: FMM=F IPFlag=           0 FMFlag=      100000 FMFlg1=        2001
         NFxFlg=           0 DoJE=T BraDBF=F KetDBF=T FulRan=T
         wScrn=  0.000000 ICntrl=     500 IOpCl=  0 I1Cent=   200000004 NGrid=           0
         NMat0=    1 NMatS0=      1 NMatT0=    0 NMatD0=    1 NMtDS0=    0 NMtDT0=    0
 Petite list used in FoFCou.
 Requested convergence on RMS density matrix=1.00D-08 within 128 cycles.
 Requested convergence on MAX density matrix=1.00D-06.
 Requested convergence on             energy=1.00D-06.
 No special actions if energy rises.
 Integral accuracy reduced to 1.0D-05 until final iterations.
 EnCoef did     3 forward-backward iterations
 Initial convergence to 1.0D-05 achieved.  Increase integral accuracy.
 SCF Done:  E(RB3LYP) =  -2626.78545031     A.U. after   20 cycles
            NFock= 20  Conv=0.34D-08     -V/T= 2.0031
 DoSCS=F DFT=T ScalE2(SS,OS)=  1.000000  1.000000
 ExpMin= 7.71D-02 ExpMax= 9.34D+04 ExpMxC= 3.17D+03 IAcc=3 IRadAn=         5 AccDes= 0.00D+00
 HarFok:  IExCor=  205 AccDes= 0.00D+00 IRadAn=         5 IDoV=-2 UseB2=F ITyADJ=14
 ICtDFT= 12500011 ScaDFX=  1.000000  1.000000  1.000000  1.000000
 Range of M.O.s used for correlation:    53   952
 NBasis=   952 NAE=   160 NBE=   160 NFC=    52 NFV=     0
 NROrb=    900 NOA=   108 NOB=   108 NVA=   792 NVB=   792

 **** Warning!!: The largest alpha MO coefficient is  0.12309522D+02


 **** Warning!!: The smallest alpha delta epsilon is  0.65641867D-01

 Would need an additional        308090100000 words for in-memory AO integral storage.
 Orbital symmetries:
       Occupied  (A) (A) (A) (A) (A) (A) (A) (A) (A) (A) (A) (A)
                 (A) (A) (A) (A) (A) (A) (A) (A) (A) (A) (A) (A)
                 (A) (A) (A) (A) (A) (A) (A) (A) (A) (A) (A) (A)
                 (A) (A) (A) (A) (A) (A) (A) (A) (A) (A) (A) (A)
                 (A) (A) (A) (A) (A) (A) (A) (A) (A) (A) (A) (A)
                 (A) (A) (A) (A) (A) (A) (A) (A) (A) (A) (A) (A)
                 (A) (A) (A) (A) (A) (A) (A) (A) (A) (A) (A) (A)
                 (A) (A) (A) (A) (A) (A) (A) (A) (A) (A) (A) (A)
                 (A) (A) (A) (A) (A) (A) (A) (A) (A) (A) (A) (A)
                 (A) (A) (A) (A) (A) (A) (A) (A) (A) (A) (A) (A)
                 (A) (A) (A) (A) (A) (A) (A) (A) (A) (A) (A) (A)
                 (A) (A) (A) (A) (A) (A) (A) (A) (A) (A) (A) (A)
                 (A) (A) (A) (A) (A) (A) (A) (A) (A) (A) (A) (A)
                 (A) (A) (A) (A)
       Virtual   (A) (A) (A) (A) (A) (A) (A) (A) (A) (A) (A) (A)
                 (A) (A) (A) (A) (A) (A) (A) (A) (A) (A) (A) (A)
                 (A) (A) (A) (A) (A) (A) (A) (A) (A) (A) (A) (A)
                 (A) (A) (A) (A) (A) (A) (A) (A) (A) (A) (A) (A)
                 (A) (A) (A) (A) (A) (A) (A) (A) (A) (A) (A) (A)
                 (A) (A) (A) (A) (A) (A) (A) (A) (A) (A) (A) (A)
                 (A) (A) (A) (A) (A) (A) (A) (A) (A) (A) (A) (A)
                 (A) (A) (A) (A) (A) (A) (A) (A) (A) (A) (A) (A)
                 (A) (A) (A) (A) (A) (A) (A) (A) (A) (A) (A) (A)
                 (A) (A) (A) (A) (A) (A) (A) (A) (A) (A) (A) (A)
                 (A) (A) (A) (A) (A) (A) (A) (A) (A) (A) (A) (A)
                 (A) (A) (A) (A) (A) (A) (A) (A) (A) (A) (A) (A)
                 (A) (A) (A) (A) (A) (A) (A) (A) (A) (A) (A) (A)
                 (A) (A) (A) (A) (A) (A) (A) (A) (A) (A) (A) (A)
                 (A) (A) (A) (A) (A) (A) (A) (A) (A) (A) (A) (A)
                 (A) (A) (A) (A) (A) (A) (A) (A) (A) (A) (A) (A)
                 (A) (A) (A) (A) (A) (A) (A) (A) (A) (A) (A) (A)
                 (A) (A) (A) (A) (A) (A) (A) (A) (A) (A) (A) (A)
                 (A) (A) (A) (A) (A) (A) (A) (A) (A) (A) (A) (A)
                 (A) (A) (A) (A) (A) (A) (A) (A) (A) (A) (A) (A)
                 (A) (A) (A) (A) (A) (A) (A) (A) (A) (A) (A) (A)
                 (A) (A) (A) (A) (A) (A) (A) (A) (A) (A) (A) (A)
                 (A) (A) (A) (A) (A) (A) (A) (A) (A) (A) (A) (A)
                 (A) (A) (A) (A) (A) (A) (A) (A) (A) (A) (A) (A)
                 (A) (A) (A) (A) (A) (A) (A) (A) (A) (A) (A) (A)
                 (A) (A) (A) (A) (A) (A) (A) (A) (A) (A) (A) (A)
                 (A) (A) (A) (A) (A) (A) (A) (A) (A) (A) (A) (A)
                 (A) (A) (A) (A) (A) (A) (A) (A) (A) (A) (A) (A)
                 (A) (A) (A) (A) (A) (A) (A) (A) (A) (A) (A) (A)
                 (A) (A) (A) (A) (A) (A) (A) (A) (A) (A) (A) (A)
                 (A) (A) (A) (A) (A) (A) (A) (A) (A) (A) (A) (A)
                 (A) (A) (A) (A) (A) (A) (A) (A) (A) (A) (A) (A)
                 (A) (A) (A) (A) (A) (A) (A) (A) (A) (A) (A) (A)
                 (A) (A) (A) (A) (A) (A) (A) (A) (A) (A) (A) (A)
                 (A) (A) (A) (A) (A) (A) (A) (A) (A) (A) (A) (A)
                 (A) (A) (A) (A) (A) (A) (A) (A) (A) (A) (A) (A)
                 (A) (A) (A) (A) (A) (A) (A) (A) (A) (A) (A) (A)
                 (A) (A) (A) (A) (A) (A) (A) (A) (A) (A) (A) (A)
                 (A) (A) (A) (A) (A) (A) (A) (A) (A) (A) (A) (A)
                 (A) (A) (A) (A) (A) (A) (A) (A) (A) (A) (A) (A)
                 (A) (A) (A) (A) (A) (A) (A) (A) (A) (A) (A) (A)
                 (A) (A) (A) (A) (A) (A) (A) (A) (A) (A) (A) (A)
                 (A) (A) (A) (A) (A) (A) (A) (A) (A) (A) (A) (A)
                 (A) (A) (A) (A) (A) (A) (A) (A) (A) (A) (A) (A)
                 (A) (A) (A) (A) (A) (A) (A) (A) (A) (A) (A) (A)
                 (A) (A) (A) (A) (A) (A) (A) (A) (A) (A) (A) (A)
                 (A) (A) (A) (A) (A) (A) (A) (A) (A) (A) (A) (A)
                 (A) (A) (A) (A) (A) (A) (A) (A) (A) (A) (A) (A)
                 (A) (A) (A) (A) (A) (A) (A) (A) (A) (A) (A) (A)
                 (A) (A) (A) (A) (A) (A) (A) (A) (A) (A) (A) (A)
                 (A) (A) (A) (A) (A) (A) (A) (A) (A) (A) (A) (A)
                 (A) (A) (A) (A) (A) (A) (A) (A) (A) (A) (A) (A)
                 (A) (A) (A) (A) (A) (A) (A) (A) (A) (A) (A) (A)
                 (A) (A) (A) (A) (A) (A) (A) (A) (A) (A) (A) (A)
                 (A) (A) (A) (A) (A) (A) (A) (A) (A) (A) (A) (A)
                 (A) (A) (A) (A) (A) (A) (A) (A) (A) (A) (A) (A)
                 (A) (A) (A) (A) (A) (A) (A) (A) (A) (A) (A) (A)
                 (A) (A) (A) (A) (A) (A) (A) (A) (A) (A) (A) (A)
                 (A) (A) (A) (A) (A) (A) (A) (A) (A) (A) (A) (A)
                 (A) (A) (A) (A) (A) (A) (A) (A) (A) (A) (A) (A)
                 (A) (A) (A) (A) (A) (A) (A) (A) (A) (A) (A) (A)
                 (A) (A) (A) (A) (A) (A) (A) (A) (A) (A) (A) (A)
                 (A) (A) (A) (A) (A) (A) (A) (A) (A) (A) (A) (A)
                 (A) (A) (A) (A) (A) (A) (A) (A) (A) (A) (A) (A)
                 (A) (A) (A) (A) (A) (A) (A) (A) (A) (A) (A) (A)
                 (A) (A) (A) (A) (A) (A) (A) (A) (A) (A) (A) (A)
     8 initial guesses have been made.
 Convergence on wavefunction:    0.000001000000000
 Iteration     1 Dimension     8 NMult     0 NNew      8
 CISAX will form     8 AO SS matrices at one time.
 Iteration     2 Dimension    12 NMult     8 NNew      4
 Iteration     3 Dimension    16 NMult    12 NNew      4
 Iteration     4 Dimension    20 NMult    16 NNew      4
 Iteration     5 Dimension    24 NMult    20 NNew      4
 Iteration     6 Dimension    28 NMult    24 NNew      4
 Iteration     7 Dimension    32 NMult    28 NNew      4
 Iteration     8 Dimension    36 NMult    32 NNew      4
 Iteration     9 Dimension    40 NMult    36 NNew      4
 Iteration    10 Dimension    44 NMult    40 NNew      4
 Iteration    11 Dimension    48 NMult    44 NNew      4
 Iteration    12 Dimension    52 NMult    48 NNew      4
 ***********************************************************************
 Excited states from <AA,BB:AA,BB> singles matrix:
 ***********************************************************************
 
 Ground to excited state transition densities written to RWF  633
 Ground to excited state transition electric dipole moments (Au):
       state          X           Y           Z        Dip. S.      Osc.
         1         3.9310     -0.0901     -0.0109     15.4609      0.6134
 Ground to excited state transition velocity dipole moments (Au):
       state          X           Y           Z        Dip. S.      Osc.
         1        -0.2312      0.0042      0.0003      0.0535      0.5988
 Ground to excited state transition magnetic dipole moments (Au):
       state          X           Y           Z
         1        -0.0271      0.0303     -0.7400
 Ground to excited state transition velocity quadrupole moments (Au):
       state          XX          YY          ZZ          XY          XZ          YZ
         1         1.0104     -0.0442     -0.0251     -0.1952     -0.0179      0.0236
 <0|del|b> * <b|rxdel|0> + <0|del|b> * <b|delr+rdel|0>
 Rotatory Strengths (R) in cgs (10**-40 erg-esu-cm/Gauss)
       state          XX          YY          ZZ    R(velocity)    E-M Angle
         1        -0.4007      3.7691     69.9527     24.4404       87.94
 1/2[<0|r|b>*<b|rxdel|0> + (<0|rxdel|b>*<b|r|0>)*]
 Rotatory Strengths (R) in cgs (10**-40 erg-esu-cm/Gauss)
       state          XX          YY          ZZ     R(length)
         1        75.2459      1.9288     -5.7121     23.8209
  1/2[<0|del|b>*<b|r|0> + (<0|r|b>*<b|del|0>)*] (Au)
       state          X           Y           Z        Dip. S.   Osc.(frdel)
         1        -0.9087     -0.0004      0.0000      0.9091      0.6061

 Excitation energies and oscillator strengths:
 
 Excited State   1:      Singlet-A      1.6195 eV  765.58 nm  f=0.6134  <S**2>=0.000
     160 ->161         0.70707
 This state for optimization and/or second-order correction.
 Total Energy, E(TD-HF/TD-KS) =  -2626.72593550    
 Copying the excited state density for this state as the 1-particle RhoCI density.
 SavETr:  write IOETrn=   770 NScale= 10 NData=  16 NLR=1 NState=    1 LETran=      28.
          IDoAtm=11111111111111111111111111111111111111111111111111
          IDoAtm=111111111111111111
          Differentiating once with respect to electric field.
                with respect to dipole field.
          Differentiating once with respect to nuclear coordinates.
          There are     1 degrees of freedom in the 1st order CPHF.  IDoFFX=0 NUNeed=     1.
 LinEq1:  Iter=  0 NonCon=     1 RMS=9.03D-03 Max=2.86D+00 NDo=     1
 AX will form     1 AO Fock derivatives at one time.
 LinEq1:  Iter=  1 NonCon=     1 RMS=5.77D-03 Max=7.56D-01 NDo=     1
 LinEq1:  Iter=  2 NonCon=     1 RMS=3.58D-03 Max=4.57D-01 NDo=     1
 LinEq1:  Iter=  3 NonCon=     1 RMS=1.88D-03 Max=8.96D-02 NDo=     1
 LinEq1:  Iter=  4 NonCon=     1 RMS=1.71D-03 Max=2.45D-01 NDo=     1
 LinEq1:  Iter=  5 NonCon=     1 RMS=1.68D-03 Max=2.01D-01 NDo=     1
 LinEq1:  Iter=  6 NonCon=     1 RMS=1.47D-03 Max=2.80D-01 NDo=     1
 LinEq1:  Iter=  7 NonCon=     1 RMS=1.14D-03 Max=1.22D-01 NDo=     1
 LinEq1:  Iter=  8 NonCon=     1 RMS=9.49D-04 Max=9.26D-02 NDo=     1
 LinEq1:  Iter=  9 NonCon=     1 RMS=7.38D-04 Max=5.29D-02 NDo=     1
 LinEq1:  Iter= 10 NonCon=     1 RMS=5.78D-04 Max=6.56D-02 NDo=     1
 LinEq1:  Iter= 11 NonCon=     1 RMS=2.97D-04 Max=2.15D-02 NDo=     1
 LinEq1:  Iter= 12 NonCon=     1 RMS=1.97D-04 Max=1.41D-02 NDo=     1
 LinEq1:  Iter= 13 NonCon=     1 RMS=1.57D-04 Max=1.26D-02 NDo=     1
 LinEq1:  Iter= 14 NonCon=     1 RMS=1.24D-04 Max=7.33D-03 NDo=     1
 LinEq1:  Iter= 15 NonCon=     1 RMS=1.10D-04 Max=7.92D-03 NDo=     1
 LinEq1:  Iter= 16 NonCon=     1 RMS=6.12D-05 Max=3.69D-03 NDo=     1
 LinEq1:  Iter= 17 NonCon=     1 RMS=4.02D-05 Max=3.71D-03 NDo=     1
 LinEq1:  Iter= 18 NonCon=     1 RMS=2.94D-05 Max=2.11D-03 NDo=     1
 LinEq1:  Iter= 19 NonCon=     1 RMS=1.68D-05 Max=1.26D-03 NDo=     1
 LinEq1:  Iter= 20 NonCon=     1 RMS=1.17D-05 Max=7.39D-04 NDo=     1
 LinEq1:  Iter= 21 NonCon=     1 RMS=6.01D-06 Max=5.45D-04 NDo=     1
 LinEq1:  Iter= 22 NonCon=     1 RMS=4.08D-06 Max=2.97D-04 NDo=     1
 LinEq1:  Iter= 23 NonCon=     1 RMS=2.51D-06 Max=1.48D-04 NDo=     1
 LinEq1:  Iter= 24 NonCon=     1 RMS=1.73D-06 Max=1.13D-04 NDo=     1
 LinEq1:  Iter= 25 NonCon=     1 RMS=8.57D-07 Max=3.99D-05 NDo=     1
 LinEq1:  Iter= 26 NonCon=     1 RMS=5.12D-07 Max=1.96D-05 NDo=     1
 LinEq1:  Iter= 27 NonCon=     1 RMS=2.88D-07 Max=1.70D-05 NDo=     1
 LinEq1:  Iter= 28 NonCon=     1 RMS=1.77D-07 Max=1.02D-05 NDo=     1
 LinEq1:  Iter= 29 NonCon=     1 RMS=1.23D-07 Max=8.13D-06 NDo=     1
 LinEq1:  Iter= 30 NonCon=     1 RMS=8.52D-08 Max=4.31D-06 NDo=     1
 LinEq1:  Iter= 31 NonCon=     1 RMS=5.78D-08 Max=3.48D-06 NDo=     1
 LinEq1:  Iter= 32 NonCon=     1 RMS=3.39D-08 Max=1.80D-06 NDo=     1
 LinEq1:  Iter= 33 NonCon=     1 RMS=1.99D-08 Max=1.07D-06 NDo=     1
 LinEq1:  Iter= 34 NonCon=     1 RMS=1.07D-08 Max=4.21D-07 NDo=     1
 LinEq1:  Iter= 35 NonCon=     1 RMS=6.20D-09 Max=2.90D-07 NDo=     1
 LinEq1:  Iter= 36 NonCon=     1 RMS=3.73D-09 Max=1.98D-07 NDo=     1
 LinEq1:  Iter= 37 NonCon=     1 RMS=2.11D-09 Max=1.30D-07 NDo=     1
 LinEq1:  Iter= 38 NonCon=     1 RMS=1.33D-09 Max=7.55D-08 NDo=     1
 LinEq1:  Iter= 39 NonCon=     1 RMS=7.33D-10 Max=3.64D-08 NDo=     1
 LinEq1:  Iter= 40 NonCon=     1 RMS=4.11D-10 Max=2.41D-08 NDo=     1
 LinEq1:  Iter= 41 NonCon=     1 RMS=2.05D-10 Max=1.16D-08 NDo=     1
 LinEq1:  Iter= 42 NonCon=     1 RMS=1.12D-10 Max=5.19D-09 NDo=     1
 LinEq1:  Iter= 43 NonCon=     1 RMS=5.70D-11 Max=2.28D-09 NDo=     1
 LinEq1:  Iter= 44 NonCon=     1 RMS=3.25D-11 Max=1.48D-09 NDo=     1
 LinEq1:  Iter= 45 NonCon=     0 RMS=1.73D-11 Max=8.16D-10 NDo=     1
 Linear equations converged to 1.000D-10 1.000D-09 after    45 iterations.
 End of Minotr F.D. properties file   721 does not exist.
 End of Minotr F.D. properties file   722 does not exist.
 End of Minotr F.D. properties file   788 does not exist.

 **********************************************************************

            Population analysis using the SCF density.

 **********************************************************************

 Orbital symmetries:
       Occupied  (A) (A) (A) (A) (A) (A) (A) (A) (A) (A) (A) (A)
                 (A) (A) (A) (A) (A) (A) (A) (A) (A) (A) (A) (A)
                 (A) (A) (A) (A) (A) (A) (A) (A) (A) (A) (A) (A)
                 (A) (A) (A) (A) (A) (A) (A) (A) (A) (A) (A) (A)
                 (A) (A) (A) (A) (A) (A) (A) (A) (A) (A) (A) (A)
                 (A) (A) (A) (A) (A) (A) (A) (A) (A) (A) (A) (A)
                 (A) (A) (A) (A) (A) (A) (A) (A) (A) (A) (A) (A)
                 (A) (A) (A) (A) (A) (A) (A) (A) (A) (A) (A) (A)
                 (A) (A) (A) (A) (A) (A) (A) (A) (A) (A) (A) (A)
                 (A) (A) (A) (A) (A) (A) (A) (A) (A) (A) (A) (A)
                 (A) (A) (A) (A) (A) (A) (A) (A) (A) (A) (A) (A)
                 (A) (A) (A) (A) (A) (A) (A) (A) (A) (A) (A) (A)
                 (A) (A) (A) (A) (A) (A) (A) (A) (A) (A) (A) (A)
                 (A) (A) (A) (A)
       Virtual   (A) (A) (A) (A) (A) (A) (A) (A) (A) (A) (A) (A)
                 (A) (A) (A) (A) (A) (A) (A) (A) (A) (A) (A) (A)
                 (A) (A) (A) (A) (A) (A) (A) (A) (A) (A) (A) (A)
                 (A) (A) (A) (A) (A) (A) (A) (A) (A) (A) (A) (A)
                 (A) (A) (A) (A) (A) (A) (A) (A) (A) (A) (A) (A)
                 (A) (A) (A) (A) (A) (A) (A) (A) (A) (A) (A) (A)
                 (A) (A) (A) (A) (A) (A) (A) (A) (A) (A) (A) (A)
                 (A) (A) (A) (A) (A) (A) (A) (A) (A) (A) (A) (A)
                 (A) (A) (A) (A) (A) (A) (A) (A) (A) (A) (A) (A)
                 (A) (A) (A) (A) (A) (A) (A) (A) (A) (A) (A) (A)
                 (A) (A) (A) (A) (A) (A) (A) (A) (A) (A) (A) (A)
                 (A) (A) (A) (A) (A) (A) (A) (A) (A) (A) (A) (A)
                 (A) (A) (A) (A) (A) (A) (A) (A) (A) (A) (A) (A)
                 (A) (A) (A) (A) (A) (A) (A) (A) (A) (A) (A) (A)
                 (A) (A) (A) (A) (A) (A) (A) (A) (A) (A) (A) (A)
                 (A) (A) (A) (A) (A) (A) (A) (A) (A) (A) (A) (A)
                 (A) (A) (A) (A) (A) (A) (A) (A) (A) (A) (A) (A)
                 (A) (A) (A) (A) (A) (A) (A) (A) (A) (A) (A) (A)
                 (A) (A) (A) (A) (A) (A) (A) (A) (A) (A) (A) (A)
                 (A) (A) (A) (A) (A) (A) (A) (A) (A) (A) (A) (A)
                 (A) (A) (A) (A) (A) (A) (A) (A) (A) (A) (A) (A)
                 (A) (A) (A) (A) (A) (A) (A) (A) (A) (A) (A) (A)
                 (A) (A) (A) (A) (A) (A) (A) (A) (A) (A) (A) (A)
                 (A) (A) (A) (A) (A) (A) (A) (A) (A) (A) (A) (A)
                 (A) (A) (A) (A) (A) (A) (A) (A) (A) (A) (A) (A)
                 (A) (A) (A) (A) (A) (A) (A) (A) (A) (A) (A) (A)
                 (A) (A) (A) (A) (A) (A) (A) (A) (A) (A) (A) (A)
                 (A) (A) (A) (A) (A) (A) (A) (A) (A) (A) (A) (A)
                 (A) (A) (A) (A) (A) (A) (A) (A) (A) (A) (A) (A)
                 (A) (A) (A) (A) (A) (A) (A) (A) (A) (A) (A) (A)
                 (A) (A) (A) (A) (A) (A) (A) (A) (A) (A) (A) (A)
                 (A) (A) (A) (A) (A) (A) (A) (A) (A) (A) (A) (A)
                 (A) (A) (A) (A) (A) (A) (A) (A) (A) (A) (A) (A)
                 (A) (A) (A) (A) (A) (A) (A) (A) (A) (A) (A) (A)
                 (A) (A) (A) (A) (A) (A) (A) (A) (A) (A) (A) (A)
                 (A) (A) (A) (A) (A) (A) (A) (A) (A) (A) (A) (A)
                 (A) (A) (A) (A) (A) (A) (A) (A) (A) (A) (A) (A)
                 (A) (A) (A) (A) (A) (A) (A) (A) (A) (A) (A) (A)
                 (A) (A) (A) (A) (A) (A) (A) (A) (A) (A) (A) (A)
                 (A) (A) (A) (A) (A) (A) (A) (A) (A) (A) (A) (A)
                 (A) (A) (A) (A) (A) (A) (A) (A) (A) (A) (A) (A)
                 (A) (A) (A) (A) (A) (A) (A) (A) (A) (A) (A) (A)
                 (A) (A) (A) (A) (A) (A) (A) (A) (A) (A) (A) (A)
                 (A) (A) (A) (A) (A) (A) (A) (A) (A) (A) (A) (A)
                 (A) (A) (A) (A) (A) (A) (A) (A) (A) (A) (A) (A)
                 (A) (A) (A) (A) (A) (A) (A) (A) (A) (A) (A) (A)
                 (A) (A) (A) (A) (A) (A) (A) (A) (A) (A) (A) (A)
                 (A) (A) (A) (A) (A) (A) (A) (A) (A) (A) (A) (A)
                 (A) (A) (A) (A) (A) (A) (A) (A) (A) (A) (A) (A)
                 (A) (A) (A) (A) (A) (A) (A) (A) (A) (A) (A) (A)
                 (A) (A) (A) (A) (A) (A) (A) (A) (A) (A) (A) (A)
                 (A) (A) (A) (A) (A) (A) (A) (A) (A) (A) (A) (A)
                 (A) (A) (A) (A) (A) (A) (A) (A) (A) (A) (A) (A)
                 (A) (A) (A) (A) (A) (A) (A) (A) (A) (A) (A) (A)
                 (A) (A) (A) (A) (A) (A) (A) (A) (A) (A) (A) (A)
                 (A) (A) (A) (A) (A) (A) (A) (A) (A) (A) (A) (A)
                 (A) (A) (A) (A) (A) (A) (A) (A) (A) (A) (A) (A)
                 (A) (A) (A) (A) (A) (A) (A) (A) (A) (A) (A) (A)
                 (A) (A) (A) (A) (A) (A) (A) (A) (A) (A) (A) (A)
                 (A) (A) (A) (A) (A) (A) (A) (A) (A) (A) (A) (A)
                 (A) (A) (A) (A) (A) (A) (A) (A) (A) (A) (A) (A)
                 (A) (A) (A) (A) (A) (A) (A) (A) (A) (A) (A) (A)
                 (A) (A) (A) (A) (A) (A) (A) (A) (A) (A) (A) (A)
                 (A) (A) (A) (A) (A) (A) (A) (A) (A) (A) (A) (A)
                 (A) (A) (A) (A) (A) (A) (A) (A) (A) (A) (A) (A)
                 (A) (A) (A) (A) (A) (A) (A) (A) (A) (A) (A) (A)
 The electronic state is 1-A.
 Alpha  occ. eigenvalues --  -88.95428 -88.88710 -19.16871 -19.16227 -19.16140
 Alpha  occ. eigenvalues --  -19.10684 -14.36673 -14.36477 -14.35726 -14.31299
 Alpha  occ. eigenvalues --  -10.31234 -10.25064 -10.24919 -10.24649 -10.24577
 Alpha  occ. eigenvalues --  -10.23706 -10.23606 -10.23344 -10.23310 -10.23240
 Alpha  occ. eigenvalues --  -10.22955 -10.22906 -10.22448 -10.22182 -10.22131
 Alpha  occ. eigenvalues --  -10.21757 -10.21248 -10.20967 -10.20404 -10.19896
 Alpha  occ. eigenvalues --  -10.19189 -10.19060 -10.19017 -10.18918 -10.18887
 Alpha  occ. eigenvalues --  -10.18860 -10.18825 -10.18814 -10.18733 -10.18662
 Alpha  occ. eigenvalues --  -10.18395 -10.18352 -10.18326 -10.18316  -8.03686
 Alpha  occ. eigenvalues --   -7.97372  -6.00101  -5.99521  -5.99287  -5.93674
 Alpha  occ. eigenvalues --   -5.93302  -5.92939  -1.10947  -1.08106  -1.08022
 Alpha  occ. eigenvalues --   -1.04434  -1.02982  -0.98126  -0.92012  -0.91594
 Alpha  occ. eigenvalues --   -0.90735  -0.88743  -0.87302  -0.87268  -0.85514
 Alpha  occ. eigenvalues --   -0.84218  -0.80255  -0.78747  -0.78263  -0.77973
 Alpha  occ. eigenvalues --   -0.76928  -0.76795  -0.76406  -0.75369  -0.74841
 Alpha  occ. eigenvalues --   -0.73146  -0.71517  -0.70336  -0.68695  -0.66442
 Alpha  occ. eigenvalues --   -0.64597  -0.64345  -0.63810  -0.63146  -0.62951
 Alpha  occ. eigenvalues --   -0.62729  -0.61503  -0.60855  -0.59087  -0.58199
 Alpha  occ. eigenvalues --   -0.57027  -0.56520  -0.55670  -0.55622  -0.54457
 Alpha  occ. eigenvalues --   -0.53563  -0.52907  -0.52821  -0.51578  -0.50881
 Alpha  occ. eigenvalues --   -0.50379  -0.49559  -0.48424  -0.48330  -0.47749
 Alpha  occ. eigenvalues --   -0.47689  -0.47192  -0.46530  -0.46343  -0.46319
 Alpha  occ. eigenvalues --   -0.46072  -0.45138  -0.44776  -0.44436  -0.44165
 Alpha  occ. eigenvalues --   -0.44001  -0.43830  -0.43535  -0.42993  -0.42507
 Alpha  occ. eigenvalues --   -0.42273  -0.41342  -0.40666  -0.40520  -0.40367
 Alpha  occ. eigenvalues --   -0.40080  -0.39887  -0.39700  -0.39676  -0.39573
 Alpha  occ. eigenvalues --   -0.39067  -0.38717  -0.38307  -0.37580  -0.37200
 Alpha  occ. eigenvalues --   -0.36751  -0.36658  -0.36174  -0.35168  -0.34806
 Alpha  occ. eigenvalues --   -0.34419  -0.34296  -0.34211  -0.34154  -0.33506
 Alpha  occ. eigenvalues --   -0.32679  -0.32137  -0.31977  -0.30895  -0.28894
 Alpha  occ. eigenvalues --   -0.28621  -0.28035  -0.27785  -0.27179  -0.27127
 Alpha  occ. eigenvalues --   -0.26785  -0.25287  -0.24564  -0.22258  -0.19119
 Alpha virt. eigenvalues --   -0.12555  -0.08145  -0.06079  -0.03810  -0.02173
 Alpha virt. eigenvalues --   -0.02081  -0.01773  -0.01545  -0.01402  -0.00852
 Alpha virt. eigenvalues --    0.00741   0.01207   0.01519   0.01985   0.03063
 Alpha virt. eigenvalues --    0.03294   0.03617   0.03760   0.03944   0.04249
 Alpha virt. eigenvalues --    0.04997   0.05717   0.06187   0.06346   0.06773
 Alpha virt. eigenvalues --    0.07171   0.07413   0.08216   0.09251   0.09414
 Alpha virt. eigenvalues --    0.09639   0.09793   0.10018   0.10127   0.10248
 Alpha virt. eigenvalues --    0.10574   0.11134   0.11913   0.12161   0.12642
 Alpha virt. eigenvalues --    0.12923   0.13096   0.13298   0.13384   0.13912
 Alpha virt. eigenvalues --    0.14161   0.15004   0.15290   0.15606   0.15984
 Alpha virt. eigenvalues --    0.16396   0.16737   0.17826   0.18292   0.18478
 Alpha virt. eigenvalues --    0.19701   0.20133   0.20345   0.20478   0.20907
 Alpha virt. eigenvalues --    0.21873   0.22355   0.22682   0.22926   0.23414
 Alpha virt. eigenvalues --    0.23728   0.24804   0.25012   0.25414   0.26486
 Alpha virt. eigenvalues --    0.27207   0.27574   0.28169   0.28530   0.29186
 Alpha virt. eigenvalues --    0.29653   0.29770   0.29936   0.30374   0.30392
 Alpha virt. eigenvalues --    0.30493   0.30983   0.31078   0.31691   0.32142
 Alpha virt. eigenvalues --    0.32215   0.33314   0.33404   0.34092   0.35000
 Alpha virt. eigenvalues --    0.35218   0.35467   0.35631   0.35981   0.36194
 Alpha virt. eigenvalues --    0.36343   0.36834   0.37117   0.37294   0.37476
 Alpha virt. eigenvalues --    0.37849   0.38001   0.38166   0.38463   0.38523
 Alpha virt. eigenvalues --    0.39017   0.39126   0.39404   0.39621   0.39987
 Alpha virt. eigenvalues --    0.39991   0.40461   0.40520   0.40617   0.40879
 Alpha virt. eigenvalues --    0.41041   0.41159   0.41607   0.42412   0.42685
 Alpha virt. eigenvalues --    0.42768   0.43072   0.43198   0.43233   0.43913
 Alpha virt. eigenvalues --    0.44050   0.44311   0.44697   0.45353   0.45581
 Alpha virt. eigenvalues --    0.45989   0.46444   0.46702   0.47132   0.47306
 Alpha virt. eigenvalues --    0.47474   0.47749   0.48142   0.48508   0.48790
 Alpha virt. eigenvalues --    0.48981   0.49594   0.49967   0.50200   0.50575
 Alpha virt. eigenvalues --    0.51135   0.51201   0.51490   0.51707   0.52422
 Alpha virt. eigenvalues --    0.52777   0.53406   0.53563   0.53829   0.54074
 Alpha virt. eigenvalues --    0.54414   0.54846   0.55639   0.55775   0.55982
 Alpha virt. eigenvalues --    0.56185   0.56772   0.56925   0.57575   0.57661
 Alpha virt. eigenvalues --    0.57770   0.58408   0.58527   0.58622   0.58900
 Alpha virt. eigenvalues --    0.59193   0.59559   0.60169   0.60328   0.60650
 Alpha virt. eigenvalues --    0.60712   0.61070   0.61268   0.61463   0.61591
 Alpha virt. eigenvalues --    0.61904   0.62522   0.63097   0.63423   0.63614
 Alpha virt. eigenvalues --    0.63676   0.64168   0.64429   0.64485   0.65279
 Alpha virt. eigenvalues --    0.65611   0.65889   0.66110   0.66467   0.66767
 Alpha virt. eigenvalues --    0.66924   0.67729   0.68226   0.68437   0.68569
 Alpha virt. eigenvalues --    0.68874   0.69526   0.69875   0.70149   0.70437
 Alpha virt. eigenvalues --    0.71028   0.71923   0.72394   0.73212   0.73752
 Alpha virt. eigenvalues --    0.74399   0.75129   0.75763   0.76208   0.76755
 Alpha virt. eigenvalues --    0.77503   0.77699   0.77798   0.78200   0.78250
 Alpha virt. eigenvalues --    0.78504   0.78702   0.79039   0.79381   0.80059
 Alpha virt. eigenvalues --    0.80179   0.80848   0.81004   0.81398   0.81729
 Alpha virt. eigenvalues --    0.82459   0.82801   0.83184   0.83871   0.84075
 Alpha virt. eigenvalues --    0.84414   0.84691   0.85400   0.85700   0.86225
 Alpha virt. eigenvalues --    0.86273   0.87094   0.87175   0.87541   0.88131
 Alpha virt. eigenvalues --    0.88209   0.88550   0.89293   0.89542   0.90106
 Alpha virt. eigenvalues --    0.90255   0.90983   0.91552   0.92033   0.92596
 Alpha virt. eigenvalues --    0.93490   0.94075   0.94106   0.94614   0.94842
 Alpha virt. eigenvalues --    0.95150   0.95560   0.95751   0.96651   0.96976
 Alpha virt. eigenvalues --    0.97008   0.97464   0.97904   0.98918   0.99137
 Alpha virt. eigenvalues --    0.99436   1.00001   1.00707   1.01046   1.01501
 Alpha virt. eigenvalues --    1.01984   1.02175   1.02353   1.03028   1.03344
 Alpha virt. eigenvalues --    1.03621   1.04108   1.04432   1.04944   1.05910
 Alpha virt. eigenvalues --    1.06234   1.06498   1.06618   1.07026   1.07587
 Alpha virt. eigenvalues --    1.08078   1.08545   1.08866   1.08968   1.09868
 Alpha virt. eigenvalues --    1.10143   1.11023   1.11814   1.12214   1.12887
 Alpha virt. eigenvalues --    1.13146   1.14072   1.14244   1.15442   1.15754
 Alpha virt. eigenvalues --    1.16142   1.16349   1.17675   1.18296   1.19170
 Alpha virt. eigenvalues --    1.20567   1.21368   1.22072   1.23134   1.23935
 Alpha virt. eigenvalues --    1.24010   1.24560   1.25603   1.26347   1.27428
 Alpha virt. eigenvalues --    1.28223   1.28943   1.29131   1.30470   1.31561
 Alpha virt. eigenvalues --    1.32152   1.32724   1.34200   1.35214   1.35777
 Alpha virt. eigenvalues --    1.35933   1.36687   1.38400   1.38583   1.38771
 Alpha virt. eigenvalues --    1.39336   1.39767   1.41854   1.41990   1.42131
 Alpha virt. eigenvalues --    1.42191   1.42549   1.42833   1.43338   1.43962
 Alpha virt. eigenvalues --    1.44926   1.44979   1.45589   1.45760   1.46146
 Alpha virt. eigenvalues --    1.46509   1.46708   1.46984   1.47330   1.47816
 Alpha virt. eigenvalues --    1.48204   1.48321   1.49004   1.49494   1.50236
 Alpha virt. eigenvalues --    1.51100   1.51888   1.52173   1.52348   1.53137
 Alpha virt. eigenvalues --    1.53487   1.53584   1.54119   1.54857   1.55076
 Alpha virt. eigenvalues --    1.55643   1.55929   1.56347   1.56936   1.57171
 Alpha virt. eigenvalues --    1.57481   1.57897   1.57984   1.58276   1.58442
 Alpha virt. eigenvalues --    1.58867   1.59045   1.59297   1.59608   1.60031
 Alpha virt. eigenvalues --    1.60563   1.61181   1.61628   1.62498   1.63741
 Alpha virt. eigenvalues --    1.64503   1.65302   1.65503   1.65534   1.66431
 Alpha virt. eigenvalues --    1.66546   1.67262   1.67479   1.67918   1.68343
 Alpha virt. eigenvalues --    1.68631   1.68784   1.69005   1.70248   1.71248
 Alpha virt. eigenvalues --    1.71467   1.71923   1.72442   1.72547   1.73101
 Alpha virt. eigenvalues --    1.73406   1.73510   1.74583   1.75434   1.75714
 Alpha virt. eigenvalues --    1.76137   1.76256   1.76718   1.76902   1.77332
 Alpha virt. eigenvalues --    1.77469   1.78064   1.78893   1.80365   1.81104
 Alpha virt. eigenvalues --    1.81549   1.82014   1.83604   1.83923   1.84157
 Alpha virt. eigenvalues --    1.84337   1.85323   1.85696   1.86144   1.86815
 Alpha virt. eigenvalues --    1.87123   1.88641   1.88861   1.89028   1.89314
 Alpha virt. eigenvalues --    1.89625   1.89696   1.90758   1.90892   1.91607
 Alpha virt. eigenvalues --    1.91970   1.92337   1.92661   1.92841   1.93408
 Alpha virt. eigenvalues --    1.93883   1.94176   1.95259   1.95897   1.97104
 Alpha virt. eigenvalues --    1.97646   1.97678   1.98848   1.99187   1.99323
 Alpha virt. eigenvalues --    1.99597   2.00206   2.00346   2.00817   2.01054
 Alpha virt. eigenvalues --    2.01430   2.02550   2.02735   2.03408   2.04151
 Alpha virt. eigenvalues --    2.04751   2.05532   2.05997   2.06183   2.06450
 Alpha virt. eigenvalues --    2.07376   2.07614   2.07902   2.08088   2.09085
 Alpha virt. eigenvalues --    2.09923   2.10229   2.10559   2.11271   2.11476
 Alpha virt. eigenvalues --    2.12106   2.12709   2.14730   2.15066   2.16871
 Alpha virt. eigenvalues --    2.17656   2.18340   2.19141   2.19485   2.21142
 Alpha virt. eigenvalues --    2.21639   2.22164   2.23412   2.25746   2.26376
 Alpha virt. eigenvalues --    2.26612   2.26937   2.28879   2.29362   2.30418
 Alpha virt. eigenvalues --    2.30522   2.31114   2.31570   2.32394   2.32641
 Alpha virt. eigenvalues --    2.33410   2.33800   2.34369   2.34680   2.35952
 Alpha virt. eigenvalues --    2.36216   2.37252   2.38033   2.38335   2.39029
 Alpha virt. eigenvalues --    2.39276   2.39501   2.40087   2.42801   2.43250
 Alpha virt. eigenvalues --    2.43348   2.44193   2.45872   2.46882   2.47505
 Alpha virt. eigenvalues --    2.47898   2.48426   2.48990   2.50069   2.51309
 Alpha virt. eigenvalues --    2.51592   2.52023   2.53607   2.53807   2.54400
 Alpha virt. eigenvalues --    2.54707   2.54889   2.56807   2.57002   2.57356
 Alpha virt. eigenvalues --    2.57760   2.58802   2.59120   2.59499   2.60252
 Alpha virt. eigenvalues --    2.60440   2.60892   2.61051   2.61401   2.61503
 Alpha virt. eigenvalues --    2.61762   2.62074   2.62695   2.63649   2.64105
 Alpha virt. eigenvalues --    2.64559   2.65082   2.65752   2.66074   2.66729
 Alpha virt. eigenvalues --    2.66970   2.67312   2.68029   2.68271   2.68415
 Alpha virt. eigenvalues --    2.68821   2.69109   2.69436   2.69627   2.70279
 Alpha virt. eigenvalues --    2.70646   2.71033   2.71314   2.71551   2.72799
 Alpha virt. eigenvalues --    2.73819   2.74040   2.74805   2.75159   2.75819
 Alpha virt. eigenvalues --    2.76748   2.77062   2.79055   2.79233   2.79468
 Alpha virt. eigenvalues --    2.80558   2.81578   2.83003   2.83171   2.83658
 Alpha virt. eigenvalues --    2.83851   2.84891   2.85359   2.85689   2.86133
 Alpha virt. eigenvalues --    2.86977   2.87519   2.88263   2.88358   2.89990
 Alpha virt. eigenvalues --    2.90739   2.90877   2.91668   2.92066   2.92415
 Alpha virt. eigenvalues --    2.93077   2.93729   2.94697   2.95661   2.96939
 Alpha virt. eigenvalues --    2.97761   3.00011   3.00095   3.00200   3.01071
 Alpha virt. eigenvalues --    3.01258   3.01597   3.02905   3.02961   3.03052
 Alpha virt. eigenvalues --    3.05043   3.05879   3.06105   3.07567   3.08287
 Alpha virt. eigenvalues --    3.08494   3.10017   3.10831   3.11448   3.14388
 Alpha virt. eigenvalues --    3.15637   3.17029   3.17595   3.18358   3.19335
 Alpha virt. eigenvalues --    3.19518   3.20053   3.21165   3.22836   3.23034
 Alpha virt. eigenvalues --    3.25055   3.26749   3.29223   3.30634   3.31411
 Alpha virt. eigenvalues --    3.32176   3.32863   3.34363   3.34410   3.35035
 Alpha virt. eigenvalues --    3.35750   3.37031   3.37097   3.37585   3.38606
 Alpha virt. eigenvalues --    3.40517   3.42283   3.44025   3.44848   3.46493
 Alpha virt. eigenvalues --    3.47626   3.48085   3.48654   3.49812   3.51731
 Alpha virt. eigenvalues --    3.52729   3.54618   3.55171   3.55395   3.57500
 Alpha virt. eigenvalues --    3.58988   3.60214   3.60884   3.61051   3.67507
 Alpha virt. eigenvalues --    3.73007   3.73906   3.74014   3.74357   3.74599
 Alpha virt. eigenvalues --    3.76963   3.77481   3.80043   3.82030   3.85679
 Alpha virt. eigenvalues --    3.86707   3.88036   3.88858   3.91343   3.94046
 Alpha virt. eigenvalues --    3.95271   3.96267   3.97957   3.98509   4.03074
 Alpha virt. eigenvalues --    4.03629   4.04917   4.05160   4.08574   4.09125
 Alpha virt. eigenvalues --    4.09291   4.09868   4.10065   4.11000   4.12291
 Alpha virt. eigenvalues --    4.13267   4.15065   4.15805   4.16259   4.17258
 Alpha virt. eigenvalues --    4.18577   4.34553   4.46554   4.51916   4.60140
 Alpha virt. eigenvalues --    4.70151   4.72245   4.80221   4.82714   4.83039
 Alpha virt. eigenvalues --    4.83382   4.83452   4.88283   4.88379   4.91583
 Alpha virt. eigenvalues --    5.00206   5.03033   5.12700   5.26714   5.26828
 Alpha virt. eigenvalues --    5.27079   5.53951   5.75576   5.76129   5.78123
 Alpha virt. eigenvalues --    7.78285   7.79404  17.11596  17.19810  17.28020
 Alpha virt. eigenvalues --   17.31033  17.48625  17.50402  23.43075  23.47370
 Alpha virt. eigenvalues --   23.51343  23.53934  23.62799  23.70945  23.77442
 Alpha virt. eigenvalues --   23.81081  23.84705  23.84827  23.84927  23.88117
 Alpha virt. eigenvalues --   23.88639  23.89173  23.90284  23.91182  23.92288
 Alpha virt. eigenvalues --   23.92397  23.93662  24.00590  24.00871  24.02904
 Alpha virt. eigenvalues --   24.03484  24.03963  24.10109  24.10419  24.10900
 Alpha virt. eigenvalues --   24.11693  24.12823  24.13580  24.16665  24.16999
 Alpha virt. eigenvalues --   24.17306  24.42487  35.46449  35.59462  35.63486
 Alpha virt. eigenvalues --   35.83145  49.83739  49.90567  49.90663  50.01013
 Alpha virt. eigenvalues --  188.88760 188.91016
          Condensed to atoms (all electrons):
 Mulliken charges:
               1
     1  C   -0.133325
     2  O   -0.346577
     3  C    0.174107
     4  C   -0.131263
     5  C   -0.060939
     6  C    0.054101
     7  N   -0.494694
     8  C    0.204382
     9  C   -0.116692
    10  C   -0.041871
    11  C   -0.002573
    12  C   -0.094972
    13  C   -0.116867
    14  H    0.120274
    15  H    0.104537
    16  C   -0.266542
    17  S    0.323847
    18  C   -0.289055
    19  C    0.003062
    20  C   -0.038542
    21  H    0.099449
    22  H    0.127593
    23  C    0.115435
    24  C   -0.117130
    25  C   -0.038987
    26  C   -0.072546
    27  C    0.127547
    28  C    0.140522
    29  N   -0.501072
    30  S    0.564261
    31  N   -0.491625
    32  C    0.036978
    33  C   -0.174598
    34  C    0.066919
    35  N   -0.232155
    36  C    0.432225
    37  O   -0.291262
    38  O   -0.296039
    39  H    0.245869
    40  H    0.113367
    41  H    0.133626
    42  H    0.109272
    43  H    0.094073
    44  H    0.119062
    45  C    0.053521
    46  C   -0.060522
    47  C   -0.131481
    48  C    0.173883
    49  C   -0.085757
    50  C   -0.056089
    51  H    0.107032
    52  H    0.107215
    53  O   -0.346988
    54  C   -0.133332
    55  H    0.112247
    56  H    0.111589
    57  H    0.132164
    58  H    0.108264
[...]
   D88       -0.00593   0.00008   0.00130   0.00429   0.00558  -0.00035
   D89        3.13405   0.00010   0.00090   0.00446   0.00534   3.13939
   D90       -3.14118  -0.00004  -0.00101  -0.00214  -0.00315   3.13885
   D91       -0.00161  -0.00007  -0.00016  -0.00405  -0.00420  -0.00581
   D92        0.00531  -0.00007  -0.00120  -0.00405  -0.00525   0.00006
   D93       -3.13830  -0.00010  -0.00035  -0.00597  -0.00630   3.13858
   D94        0.00424  -0.00003  -0.00083  -0.00182  -0.00267   0.00157
   D95       -3.14019  -0.00004  -0.00083  -0.00209  -0.00293   3.14007
   D96       -3.13576  -0.00005  -0.00044  -0.00199  -0.00244  -3.13820
   D97        0.00300  -0.00005  -0.00043  -0.00226  -0.00270   0.00030
   D98       -0.00170  -0.00001   0.00026  -0.00084  -0.00059  -0.00229
   D99       -3.14109  -0.00002   0.00034  -0.00081  -0.00048  -3.14157
   D100      -3.14043  -0.00001   0.00025  -0.00055  -0.00032  -3.14075
   D101       0.00337  -0.00002   0.00033  -0.00053  -0.00021   0.00316
   D102       0.00132   0.00002  -0.00023   0.00089   0.00067   0.00199
   D103      -3.13688  -0.00001   0.00024   0.00005   0.00031  -3.13657
   D104       3.14092   0.00003  -0.00030   0.00087   0.00056   3.14148
   D105       0.00272   0.00000   0.00017   0.00003   0.00020   0.00292
   D106      -0.00525  -0.00006  -0.00108  -0.00358  -0.00466  -0.00991
   D107      -3.11561   0.00005  -0.00105   0.00016  -0.00090  -3.11651
   D108       3.13858  -0.00006  -0.00100  -0.00355  -0.00454   3.13404
   D109       0.02822   0.00004  -0.00096   0.00019  -0.00078   0.02744
   D110      -0.00326   0.00002   0.00072   0.00159   0.00233  -0.00094
   D111       3.14010   0.00005  -0.00002   0.00326   0.00324  -3.13985
   D112       3.13528   0.00004   0.00030   0.00235   0.00265   3.13794
   D113      -0.00455   0.00007  -0.00044   0.00402   0.00357  -0.00098
   D114       3.14143   0.00002  -0.00036  -0.00034  -0.00071   3.14072
   D115       0.00300  -0.00001   0.00008  -0.00113  -0.00105   0.00195
   D116      -3.13611  -0.00006  -0.00025  -0.00287  -0.00312  -3.13923
   D117       0.00358  -0.00009   0.00056  -0.00467  -0.00411  -0.00053
   D118      -0.00168   0.00008  -0.00046   0.00359   0.00315   0.00147
   D119      -0.00082  -0.00004   0.00021  -0.00141  -0.00119  -0.00201
   D120      -0.05196   0.00009  -0.00126   0.00272   0.00146  -0.05050
   D121      -3.13515   0.00012  -0.00318   0.00414   0.00097  -3.13418
   D122       3.05746  -0.00005  -0.00128  -0.00128  -0.00256   3.05490
   D123      -0.02573  -0.00002  -0.00319   0.00014  -0.00305  -0.02879
   D124       2.83464   0.00084   0.00213   0.08404   0.08601   2.92066
   D125      -0.27787  -0.00114   0.01754  -0.09615  -0.07844  -0.35631
   D126      -0.25376   0.00091   0.00052   0.08545   0.08580  -0.16796
   D127       2.91692  -0.00107   0.01593  -0.09474  -0.07866   2.83826
   D128      -0.21760   0.00064  -0.00602   0.07333   0.06718  -0.15042
   D129       2.95181  -0.00126   0.00871  -0.09903  -0.09019   2.86162
   D130      -3.12816  -0.00014   0.00259  -0.00597  -0.00335  -3.13151
   D131      -0.02378  -0.00021   0.00079  -0.01056  -0.00977  -0.03355
   D132      -0.02723   0.00010  -0.00396   0.00376  -0.00019  -0.02743
   D133       3.07714   0.00004  -0.00576  -0.00084  -0.00661   3.07053
   D134       3.13202   0.00018  -0.00320   0.00956   0.00638   3.13841
   D135      -0.02414   0.00017  -0.00114   0.00871   0.00760  -0.01654
   D136       0.03063  -0.00004   0.00317  -0.00007   0.00309   0.03371
   D137      -3.12554  -0.00005   0.00524  -0.00092   0.00430  -3.12124
   D138       0.00699  -0.00012   0.00169  -0.00597  -0.00427   0.00272
   D139       3.11689  -0.00001   0.00019  -0.00128  -0.00109   3.11580
   D140      -3.09733  -0.00008   0.00348  -0.00154   0.00194  -3.09539
   D141       0.01257   0.00003   0.00198   0.00315   0.00511   0.01769
   D142       0.01044   0.00006   0.00145   0.00439   0.00583   0.01627
   D143       3.13955   0.00007   0.00064   0.00409   0.00472  -3.13891
   D144      -3.09895  -0.00004   0.00298  -0.00028   0.00269  -3.09626
   D145       0.03017  -0.00003   0.00216  -0.00057   0.00158   0.03175
   D146      -0.00698   0.00000  -0.00223  -0.00074  -0.00298  -0.00995
   D147       3.13993  -0.00004  -0.00406  -0.00352  -0.00759   3.13235
   D148      -3.13721  -0.00001  -0.00149  -0.00049  -0.00199  -3.13920
   D149       0.00969  -0.00005  -0.00332  -0.00327  -0.00660   0.00310
   D150       0.00247   0.00004   0.00102   0.00290   0.00392   0.00639
   D151       3.13193   0.00006   0.00021   0.00264   0.00285   3.13478
   D152      -0.01392   0.00000  -0.00015  -0.00137  -0.00151  -0.01544
   D153      -3.14085   0.00000  -0.00224  -0.00058  -0.00280   3.13953
   D154       3.12218   0.00004   0.00174   0.00152   0.00325   3.12543
   D155      -0.00474   0.00005  -0.00035   0.00231   0.00195  -0.00278
   D156      -1.07490  -0.00007  -0.00196  -0.00314  -0.00510  -1.08001
   D157       1.06736   0.00000  -0.00218  -0.00250  -0.00468   1.06268
   D158       3.13845  -0.00005  -0.00197  -0.00298  -0.00495   3.13350
   D159      -0.01408  -0.00001  -0.00010  -0.00181  -0.00190  -0.01598
   D160       3.12164   0.00010   0.00083   0.00401   0.00483   3.12647
   D161      -3.13966  -0.00009  -0.00024  -0.00457  -0.00479   3.13874
   D162      -0.00394   0.00002   0.00069   0.00125   0.00194  -0.00200
         Item               Value     Threshold  Converged?
 Maximum Force            0.008096     0.000450     NO 
 RMS     Force            0.000986     0.000300     NO 
 Maximum Displacement     0.726254     0.001800     NO 
 RMS     Displacement     0.182314     0.001200     NO 
 Predicted change in Energy=-2.096224D-03
 GradGradGradGradGradGradGradGradGradGradGradGradGradGradGradGradGradGrad

 Stoichiometry    C34H24N4O4S2
 Framework group  C1[X(C34H24N4O4S2)]
 Deg. of freedom   198
 Full point group                 C1      NOp   1
 Largest Abelian subgroup         C1      NOp   1
 Largest concise Abelian subgroup C1      NOp   1
                         Standard orientation:                         
 ---------------------------------------------------------------------
 Center     Atomic      Atomic             Coordinates (Angstroms)
 Number     Number       Type             X           Y           Z
 ---------------------------------------------------------------------
      1          6           0        7.677634    6.147409   -0.365390
      2          8           0        6.525775    5.505151   -0.919825
      3          6           0        6.298713    4.209255   -0.648465
      4          6           0        7.113627    3.398112    0.157396
      5          6           0        6.782259    2.070684    0.366163
      6          6           0        5.630358    1.502865   -0.218572
      7          7           0        5.276823    0.173032    0.001622
      8          6           0        3.852586   -0.178239   -0.072322
      9          6           0        3.362869   -0.792428   -1.216088
     10          6           0        2.003856   -1.100720   -1.290717
     11          6           0        1.144650   -0.819846   -0.220742
     12          6           0        1.669607   -0.208673    0.924092
     13          6           0        3.023444    0.121899    0.998502
     14          1           0        3.424752    0.605495    1.881852
     15          1           0        1.020201    0.010656    1.762529
     16          6           0       -0.289970   -1.170822   -0.315695
     17         16           0       -1.524799    0.000011    0.093323
     18          6           0       -2.817549   -1.129620   -0.310583
     19          6           0       -2.282532   -2.325224   -0.724049
     20          6           0       -0.852758   -2.343783   -0.730249
     21          1           0       -0.273839   -3.213718   -1.014213
     22          1           0       -2.902922   -3.157744   -1.015750
     23          6           0       -4.220416   -0.728651   -0.175950
     24          6           0       -4.581235    0.562236    0.227821
     25          6           0       -5.897586    0.995634    0.374867
     26          6           0       -6.997740    0.155621    0.126900
     27          6           0       -6.678553   -1.190504   -0.294715
     28          6           0       -5.296845   -1.633127   -0.445616
     29          7           0       -5.190236   -2.905624   -0.844540
     30         16           0       -6.735885   -3.493811   -1.013649
     31          7           0       -7.575132   -2.126214   -0.580494
     32          6           0       -8.375628    0.500800    0.247324
     33          6           0       -9.014061    1.662866    0.622780
     34          6           0       -8.322174    2.828955    1.052584
     35          7           0       -7.741280    3.771614    1.390052
     36          6           0      -10.496861    1.783908    0.682236
     37          8           0      -11.065121    2.703409    1.211192
     38          8           0      -11.221615    0.877074   -0.038764
     39          1           0      -10.639732    0.354850   -0.602152
     40          1           0       -9.019957   -0.343310    0.019988
     41          1           0       -6.066711    2.013525    0.693661
     42          1           0       -3.798958    1.280322    0.444826
     43          1           0        1.604088   -1.556127   -2.188275
     44          1           0        4.027157   -1.018124   -2.042529
     45          6           0        6.184576   -0.850066    0.284710
     46          6           0        7.506382   -0.824566   -0.203936
     47          6           0        8.394769   -1.850289    0.073118
     48          6           0        7.985631   -2.944316    0.850966
     49          6           0        6.659569   -2.988266    1.323609
     50          6           0        5.776445   -1.972975    1.041534
     51          1           0        4.761774   -2.026244    1.412091
     52          1           0        6.355529   -3.842573    1.915163
     53          8           0        8.761647   -3.990905    1.183598
     54          6           0       10.119568   -4.027563    0.735816
     55          1           0       10.172288   -4.044131   -0.356555
     56          1           0       10.684172   -3.175775    1.125762
     57          1           0       10.531026   -4.951546    1.134160
     58          1           0        9.392879   -1.805242   -0.340366
     59          1           0        7.824030   -0.009300   -0.840865
     60          6           0        4.801928    2.340499   -1.004300
     61          6           0        5.135330    3.655989   -1.219409
     62          1           0        4.511898    4.295869   -1.830913
     63          1           0        3.903106    1.937094   -1.449964
     64          1           0        7.396256    1.471239    1.025358
     65          1           0        7.989889    3.802875    0.645217
     66          1           0        7.641053    7.171256   -0.728586
     67          1           0        7.639271    6.144446    0.727501
     68          1           0        8.597619    5.667186   -0.710511
 ---------------------------------------------------------------------
 Rotational constants (GHZ):      0.1167761      0.0190152      0.0167502
 Standard basis: 6-311G(d,p) (5D, 7F)
 There are   996 symmetry adapted cartesian basis functions of A   symmetry.
 There are   952 symmetry adapted basis functions of A   symmetry.
   952 basis functions,  1628 primitive gaussians,   996 cartesian basis functions
   160 alpha electrons      160 beta electrons
       nuclear repulsion energy      4747.5255891195 Hartrees.
 NAtoms=   68 NActive=   68 NUniq=   68 SFac= 1.00D+00 NAtFMM=   60 NAOKFM=T Big=T
 Integral buffers will be    131072 words long.
 Regular integral format.
 Two-electron integral symmetry is turned on.
 One-electron integrals computed using PRISM.
 NBasis=   952 RedAO= T EigKep=  1.27D-04  NBF=   952
 NBsUse=   952 1.00D-06 EigRej= -1.00D+00 NBFU=   952
 Initial guess from the checkpoint file:  "/tmp/bnp.467170.sequoia/Gau-14056.chk"
 B after Tr=     0.000000    0.000000    0.000000
         Rot=    0.999986   -0.005129    0.000018    0.000898 Ang=  -0.60 deg.
 ExpMin= 7.71D-02 ExpMax= 9.34D+04 ExpMxC= 3.17D+03 IAcc=2 IRadAn=         4 AccDes= 0.00D+00
 Harris functional with IExCor=  402 and IRadAn=       4 diagonalized for initial guess.
 HarFok:  IExCor=  402 AccDes= 0.00D+00 IRadAn=         4 IDoV= 1 UseB2=F ITyADJ=14
 ICtDFT=  3500011 ScaDFX=  1.000000  1.000000  1.000000  1.000000
 FoFCou: FMM=F IPFlag=           0 FMFlag=      100000 FMFlg1=        2001
         NFxFlg=           0 DoJE=T BraDBF=F KetDBF=T FulRan=T
         wScrn=  0.000000 ICntrl=     500 IOpCl=  0 I1Cent=   200000004 NGrid=           0
         NMat0=    1 NMatS0=      1 NMatT0=    0 NMatD0=    1 NMtDS0=    0 NMtDT0=    0
 Petite list used in FoFCou.
 Requested convergence on RMS density matrix=1.00D-08 within 128 cycles.
 Requested convergence on MAX density matrix=1.00D-06.
 Requested convergence on             energy=1.00D-06.
 No special actions if energy rises.
 Integral accuracy reduced to 1.0D-05 until final iterations.
 Initial convergence to 1.0D-05 achieved.  Increase integral accuracy.
 SCF Done:  E(RB3LYP) =  -2626.76777516     A.U. after   14 cycles
            NFock= 14  Conv=0.49D-08     -V/T= 2.0031
 DoSCS=F DFT=T ScalE2(SS,OS)=  1.000000  1.000000
 ExpMin= 7.71D-02 ExpMax= 9.34D+04 ExpMxC= 3.17D+03 IAcc=3 IRadAn=         5 AccDes= 0.00D+00
 HarFok:  IExCor=  205 AccDes= 0.00D+00 IRadAn=         5 IDoV=-2 UseB2=F ITyADJ=14
 ICtDFT= 12500011 ScaDFX=  1.000000  1.000000  1.000000  1.000000
 Range of M.O.s used for correlation:    53   952
 NBasis=   952 NAE=   160 NBE=   160 NFC=    52 NFV=     0
 NROrb=    900 NOA=   108 NOB=   108 NVA=   792 NVB=   792

 **** Warning!!: The largest alpha MO coefficient is  0.14109471D+02


 **** Warning!!: The smallest alpha delta epsilon is  0.35550631D-01

 Would need an additional        308090100000 words for in-memory AO integral storage.
 Orbital symmetries:
       Occupied  (A) (A) (A) (A) (A) (A) (A) (A) (A) (A) (A) (A)
                 (A) (A) (A) (A) (A) (A) (A) (A) (A) (A) (A) (A)
                 (A) (A) (A) (A) (A) (A) (A) (A) (A) (A) (A) (A)
                 (A) (A) (A) (A) (A) (A) (A) (A) (A) (A) (A) (A)
                 (A) (A) (A) (A) (A) (A) (A) (A) (A) (A) (A) (A)
                 (A) (A) (A) (A) (A) (A) (A) (A) (A) (A) (A) (A)
                 (A) (A) (A) (A) (A) (A) (A) (A) (A) (A) (A) (A)
                 (A) (A) (A) (A) (A) (A) (A) (A) (A) (A) (A) (A)
                 (A) (A) (A) (A) (A) (A) (A) (A) (A) (A) (A) (A)
                 (A) (A) (A) (A) (A) (A) (A) (A) (A) (A) (A) (A)
                 (A) (A) (A) (A) (A) (A) (A) (A) (A) (A) (A) (A)
                 (A) (A) (A) (A) (A) (A) (A) (A) (A) (A) (A) (A)
                 (A) (A) (A) (A) (A) (A) (A) (A) (A) (A) (A) (A)
                 (A) (A) (A) (A)
       Virtual   (A) (A) (A) (A) (A) (A) (A) (A) (A) (A) (A) (A)
                 (A) (A) (A) (A) (A) (A) (A) (A) (A) (A) (A) (A)
                 (A) (A) (A) (A) (A) (A) (A) (A) (A) (A) (A) (A)
                 (A) (A) (A) (A) (A) (A) (A) (A) (A) (A) (A) (A)
                 (A) (A) (A) (A) (A) (A) (A) (A) (A) (A) (A) (A)
                 (A) (A) (A) (A) (A) (A) (A) (A) (A) (A) (A) (A)
                 (A) (A) (A) (A) (A) (A) (A) (A) (A) (A) (A) (A)
                 (A) (A) (A) (A) (A) (A) (A) (A) (A) (A) (A) (A)
                 (A) (A) (A) (A) (A) (A) (A) (A) (A) (A) (A) (A)
                 (A) (A) (A) (A) (A) (A) (A) (A) (A) (A) (A) (A)
                 (A) (A) (A) (A) (A) (A) (A) (A) (A) (A) (A) (A)
                 (A) (A) (A) (A) (A) (A) (A) (A) (A) (A) (A) (A)
                 (A) (A) (A) (A) (A) (A) (A) (A) (A) (A) (A) (A)
                 (A) (A) (A) (A) (A) (A) (A) (A) (A) (A) (A) (A)
                 (A) (A) (A) (A) (A) (A) (A) (A) (A) (A) (A) (A)
                 (A) (A) (A) (A) (A) (A) (A) (A) (A) (A) (A) (A)
                 (A) (A) (A) (A) (A) (A) (A) (A) (A) (A) (A) (A)
                 (A) (A) (A) (A) (A) (A) (A) (A) (A) (A) (A) (A)
                 (A) (A) (A) (A) (A) (A) (A) (A) (A) (A) (A) (A)
                 (A) (A) (A) (A) (A) (A) (A) (A) (A) (A) (A) (A)
                 (A) (A) (A) (A) (A) (A) (A) (A) (A) (A) (A) (A)
                 (A) (A) (A) (A) (A) (A) (A) (A) (A) (A) (A) (A)
                 (A) (A) (A) (A) (A) (A) (A) (A) (A) (A) (A) (A)
                 (A) (A) (A) (A) (A) (A) (A) (A) (A) (A) (A) (A)
                 (A) (A) (A) (A) (A) (A) (A) (A) (A) (A) (A) (A)
                 (A) (A) (A) (A) (A) (A) (A) (A) (A) (A) (A) (A)
                 (A) (A) (A) (A) (A) (A) (A) (A) (A) (A) (A) (A)
                 (A) (A) (A) (A) (A) (A) (A) (A) (A) (A) (A) (A)
                 (A) (A) (A) (A) (A) (A) (A) (A) (A) (A) (A) (A)
                 (A) (A) (A) (A) (A) (A) (A) (A) (A) (A) (A) (A)
                 (A) (A) (A) (A) (A) (A) (A) (A) (A) (A) (A) (A)
                 (A) (A) (A) (A) (A) (A) (A) (A) (A) (A) (A) (A)
                 (A) (A) (A) (A) (A) (A) (A) (A) (A) (A) (A) (A)
                 (A) (A) (A) (A) (A) (A) (A) (A) (A) (A) (A) (A)
                 (A) (A) (A) (A) (A) (A) (A) (A) (A) (A) (A) (A)
                 (A) (A) (A) (A) (A) (A) (A) (A) (A) (A) (A) (A)
                 (A) (A) (A) (A) (A) (A) (A) (A) (A) (A) (A) (A)
                 (A) (A) (A) (A) (A) (A) (A) (A) (A) (A) (A) (A)
                 (A) (A) (A) (A) (A) (A) (A) (A) (A) (A) (A) (A)
                 (A) (A) (A) (A) (A) (A) (A) (A) (A) (A) (A) (A)
                 (A) (A) (A) (A) (A) (A) (A) (A) (A) (A) (A) (A)
                 (A) (A) (A) (A) (A) (A) (A) (A) (A) (A) (A) (A)
                 (A) (A) (A) (A) (A) (A) (A) (A) (A) (A) (A) (A)
                 (A) (A) (A) (A) (A) (A) (A) (A) (A) (A) (A) (A)
                 (A) (A) (A) (A) (A) (A) (A) (A) (A) (A) (A) (A)
                 (A) (A) (A) (A) (A) (A) (A) (A) (A) (A) (A) (A)
                 (A) (A) (A) (A) (A) (A) (A) (A) (A) (A) (A) (A)
                 (A) (A) (A) (A) (A) (A) (A) (A) (A) (A) (A) (A)
                 (A) (A) (A) (A) (A) (A) (A) (A) (A) (A) (A) (A)
                 (A) (A) (A) (A) (A) (A) (A) (A) (A) (A) (A) (A)
                 (A) (A) (A) (A) (A) (A) (A) (A) (A) (A) (A) (A)
                 (A) (A) (A) (A) (A) (A) (A) (A) (A) (A) (A) (A)
                 (A) (A) (A) (A) (A) (A) (A) (A) (A) (A) (A) (A)
                 (A) (A) (A) (A) (A) (A) (A) (A) (A) (A) (A) (A)
                 (A) (A) (A) (A) (A) (A) (A) (A) (A) (A) (A) (A)
                 (A) (A) (A) (A) (A) (A) (A) (A) (A) (A) (A) (A)
                 (A) (A) (A) (A) (A) (A) (A) (A) (A) (A) (A) (A)
                 (A) (A) (A) (A) (A) (A) (A) (A) (A) (A) (A) (A)
                 (A) (A) (A) (A) (A) (A) (A) (A) (A) (A) (A) (A)
                 (A) (A) (A) (A) (A) (A) (A) (A) (A) (A) (A) (A)
                 (A) (A) (A) (A) (A) (A) (A) (A) (A) (A) (A) (A)
                 (A) (A) (A) (A) (A) (A) (A) (A) (A) (A) (A) (A)
                 (A) (A) (A) (A) (A) (A) (A) (A) (A) (A) (A) (A)
                 (A) (A) (A) (A) (A) (A) (A) (A) (A) (A) (A) (A)
                 (A) (A) (A) (A) (A) (A) (A) (A) (A) (A) (A) (A)
                 (A) (A) (A) (A) (A) (A) (A) (A) (A) (A) (A) (A)
 Generating guess from densities on rwf.
 Convergence on wavefunction:    0.000001000000000
 Iteration     1 Dimension     2 NMult     0 NNew      2
 CISAX will form     2 AO SS matrices at one time.
 Iteration     2 Dimension     4 NMult     2 NNew      2
 Iteration     3 Dimension     6 NMult     4 NNew      2
 Iteration     4 Dimension     8 NMult     6 NNew      2
 Iteration     5 Dimension    10 NMult     8 NNew      2
 Iteration     6 Dimension    12 NMult    10 NNew      2
 Iteration     7 Dimension    14 NMult    12 NNew      2
 Iteration     8 Dimension    16 NMult    14 NNew      2
