 Entering Gaussian System, Link 0=/usr/local/apps//g09/g09
 Input=mex.com
 Output=mex.out
 Initial command:
 /usr/local/apps//g09/l1.exe "/tmp/bnp.467117.sequoia/Gau-32230.inp" -scrdir="/tmp/bnp.467117.sequoia/"
 Entering Link 1 = /usr/local/apps//g09/l1.exe PID=     32231.
  
 Copyright (c) 1988,1990,1992,1993,1995,1998,2003,2009,2013,
            Gaussian, Inc.  All Rights Reserved.
  
 This is part of the Gaussian(R) 09 program.  It is based on
 the Gaussian(R) 03 system (copyright 2003, Gaussian, Inc.),
 the Gaussian(R) 98 system (copyright 1998, Gaussian, Inc.),
 the Gaussian(R) 94 system (copyright 1995, Gaussian, Inc.),
 the Gaussian 92(TM) system (copyright 1992, Gaussian, Inc.),
 the Gaussian 90(TM) system (copyright 1990, Gaussian, Inc.),
 the Gaussian 88(TM) system (copyright 1988, Gaussian, Inc.),
 the Gaussian 86(TM) system (copyright 1986, Carnegie Mellon
 University), and the Gaussian 82(TM) system (copyright 1983,
 Carnegie Mellon University). Gaussian is a federally registered
 trademark of Gaussian, Inc.
  
 This software contains proprietary and confidential information,
 including trade secrets, belonging to Gaussian, Inc.
  
 This software is provided under written license and may be
 used, copied, transmitted, or stored only in accord with that
 written license.
  
 The following legend is applicable only to US Government
 contracts under FAR:
  
                    RESTRICTED RIGHTS LEGEND
  
 Use, reproduction and disclosure by the US Government is
 subject to restrictions as set forth in subparagraphs (a)
 and (c) of the Commercial Computer Software - Restricted
 Rights clause in FAR 52.227-19.
  
 Gaussian, Inc.
 340 Quinnipiac St., Bldg. 40, Wallingford CT 06492
  
  
 ---------------------------------------------------------------
 Warning -- This program may not be used in any manner that
 competes with the business of Gaussian, Inc. or will provide
 assistance to any competitor of Gaussian, Inc.  The licensee
 of this program is prohibited from giving any competitor of
 Gaussian, Inc. access to this program.  By using this program,
 the user acknowledges that Gaussian, Inc. is engaged in the
 business of creating and licensing software in the field of
 computational chemistry and represents and warrants to the
 licensee that it is not a competitor of Gaussian, Inc. and that
 it will not use this program in any manner prohibited above.
 ---------------------------------------------------------------
  

 Cite this work as:
 Gaussian 09, Revision D.01,
 M. J. Frisch, G. W. Trucks, H. B. Schlegel, G. E. Scuseria, 
 M. A. Robb, J. R. Cheeseman, G. Scalmani, V. Barone, B. Mennucci, 
 G. A. Petersson, H. Nakatsuji, M. Caricato, X. Li, H. P. Hratchian, 
 A. F. Izmaylov, J. Bloino, G. Zheng, J. L. Sonnenberg, M. Hada, 
 M. Ehara, K. Toyota, R. Fukuda, J. Hasegawa, M. Ishida, T. Nakajima, 
 Y. Honda, O. Kitao, H. Nakai, T. Vreven, J. A. Montgomery, Jr., 
 J. E. Peralta, F. Ogliaro, M. Bearpark, J. J. Heyd, E. Brothers, 
 K. N. Kudin, V. N. Staroverov, T. Keith, R. Kobayashi, J. Normand, 
 K. Raghavachari, A. Rendell, J. C. Burant, S. S. Iyengar, J. Tomasi, 
 M. Cossi, N. Rega, J. M. Millam, M. Klene, J. E. Knox, J. B. Cross, 
 V. Bakken, C. Adamo, J. Jaramillo, R. Gomperts, R. E. Stratmann, 
 O. Yazyev, A. J. Austin, R. Cammi, C. Pomelli, J. W. Ochterski, 
 R. L. Martin, K. Morokuma, V. G. Zakrzewski, G. A. Voth, 
 P. Salvador, J. J. Dannenberg, S. Dapprich, A. D. Daniels, 
 O. Farkas, J. B. Foresman, J. V. Ortiz, J. Cioslowski, 
 and D. J. Fox, Gaussian, Inc., Wallingford CT, 2013.
 
 ******************************************
 Gaussian 09:  ES64L-G09RevD.01 24-Apr-2013
                14-May-2021 
 ******************************************
 %mem=8gb
 ------------------------
 #N B3LYP/6-311G(d,p) OPT
 ------------------------
 1/14=-1,18=20,19=15,26=3,38=1/1,3;
 2/9=110,12=2,17=6,18=5,40=1/2;
 3/5=4,6=6,7=101,11=2,16=1,25=1,30=1,71=1,74=-5/1,2,3;
 4//1;
 5/5=2,38=5/2;
 6/7=2,8=2,9=2,10=2,28=1/1;
 7//1,2,3,16;
 1/14=-1,18=20,19=15,26=3/3(2);
 2/9=110/2;
 99//99;
 2/9=110/2;
 3/5=4,6=6,7=101,11=2,16=1,25=1,30=1,71=1,74=-5/1,2,3;
 4/5=5,16=3,69=1/1;
 5/5=2,38=5/2;
 7//1,2,3,16;
 1/14=-1,18=20,19=15,26=3/3(-5);
 2/9=110/2;
 6/7=2,8=2,9=2,10=2,19=2,28=1/1;
 99/9=1/99;
 ------------
 C34H24O4N4S2
 ------------
 Symbolic Z-matrix:
 Charge =  0 Multiplicity = 1
 C                     0.        0.        0. 
 O                    -0.37753   1.1208   -0.77728 
 C                    -1.69734   1.5084   -0.77591 
 C                    -2.69209   0.88978  -0.11129 
 C                    -3.95873   1.33028  -0.15253 
 C                    -4.3178    2.42182  -0.85463 
 N                    -5.64255   2.85072  -0.86128 
 C                    -5.94471   4.21219  -0.89273 
 C                    -7.04863   4.71314  -1.48045 
 C                    -7.32376   6.0273   -1.49581 
 C                    -6.50615   6.94787  -0.94651 
 C                    -5.40216   6.44613  -0.35515 
 C                    -5.1425    5.12938  -0.31917 
 H                    -4.23114   4.80965   0.21461 
 H                    -4.66282   7.09463   0.14656 
 C                    -6.7859    8.2708   -0.98951 
 S                    -5.91682   9.34469  -0.4864 
 C                    -6.67001   10.5693  -0.81425 
 C                    -7.82632   10.17346  -1.37218 
 C                    -7.89244   8.84354  -1.48349 
 H                    -8.76078   8.33914  -1.93867 
 H                    -8.64843   10.79128  -1.76084 
 C                    -6.20548   11.8295  -0.60772 
 C                    -4.95169   12.05353  -0.15588 
 C                    -4.42627   13.27682   0.01748 
 C                    -5.11183   14.40341  -0.23891 
 C                    -6.37785   14.1985  -0.66712 
 C                    -6.90561   12.96187  -0.84376 
 N                    -8.11227   12.96742  -1.23151 
 S                    -8.69409   14.58618  -1.60147 
 N                    -7.15988   15.15229  -0.96256 
 C                    -4.62064   15.65738  -0.0979 
 C                    -3.40903   16.12668   0.26579 
 C                    -2.36019   15.39073   0.58421 
 N                    -1.44182   14.73611   0.85319 
 C                    -3.1962    17.47732   0.30573 
 O                    -2.09286   17.85389   0.64495 
 O                    -4.12368   18.41992  -0.00069 
 H                    -4.96032   18.00514  -0.25874 
 H                    -5.34653   16.44492  -0.32895 
 H                    -3.38853   13.30135   0.37625 
 H                    -4.26157   11.22641   0.08215 
 H                    -8.25089   6.31163  -2.01873 
 H                    -7.7606    4.04535  -1.99516 
 C                    -6.64022   1.8947   -1.03522 
 C                    -6.48375   0.82631  -1.84172 
 C                    -7.44737  -0.09358  -2.00771 
 C                    -8.62648  -0.01763  -1.36128 
 C                    -8.77796   1.04979  -0.55501 
 C                    -7.81933   1.97428  -0.3914 
 H                    -8.01135   2.80829   0.30539 
 H                    -9.72765   1.16627  -0.00334 
 O                    -9.66109  -0.91575  -1.48114 
 C                    -9.54819  -1.96171  -2.42844 
 H                    -9.44339  -1.53915  -3.45603 
 H                    -8.699    -2.63672  -2.16735 
 H                    -10.48997  -2.55808  -2.39004 
 H                    -7.23565  -0.92311  -2.70167 
 H                    -5.54688   0.69522  -2.41125 
 C                    -3.32597   3.04354  -1.521 
 C                    -2.06111   2.59699  -1.47981 
 H                    -1.28698   3.14381  -2.04647 
 H                    -3.5409    3.93592  -2.13364 
 H                    -4.71681   0.78053   0.43258 
 H                    -2.49413  -0.00534   0.49995 
 H                     1.09908  -0.14458  -0.12333 
 H                    -0.2057    0.19289   1.07986 
 H                    -0.51633  -0.91944  -0.36552 
 

 GradGradGradGradGradGradGradGradGradGradGradGradGradGradGradGradGradGrad
 Berny optimization.
 Initialization pass.
                           ----------------------------
                           !    Initial Parameters    !
                           ! (Angstroms and Degrees)  !
 --------------------------                            --------------------------
 ! Name  Definition              Value          Derivative Info.                !
 --------------------------------------------------------------------------------
 ! R1    R(1,2)                  1.4152         estimate D2E/DX2                !
 ! R2    R(1,66)                 1.1154         estimate D2E/DX2                !
 ! R3    R(1,67)                 1.1161         estimate D2E/DX2                !
 ! R4    R(1,68)                 1.116          estimate D2E/DX2                !
 ! R5    R(2,3)                  1.3756         estimate D2E/DX2                !
 ! R6    R(3,4)                  1.3468         estimate D2E/DX2                !
 ! R7    R(3,61)                 1.3464         estimate D2E/DX2                !
 ! R8    R(4,5)                  1.3417         estimate D2E/DX2                !
 ! R9    R(4,65)                 1.1018         estimate D2E/DX2                !
 ! R10   R(5,6)                  1.3466         estimate D2E/DX2                !
 ! R11   R(5,64)                 1.1042         estimate D2E/DX2                !
 ! R12   R(6,7)                  1.3925         estimate D2E/DX2                !
 ! R13   R(6,60)                 1.347          estimate D2E/DX2                !
 ! R14   R(7,8)                  1.395          estimate D2E/DX2                !
 ! R15   R(7,45)                 1.3927         estimate D2E/DX2                !
 ! R16   R(8,9)                  1.3472         estimate D2E/DX2                !
 ! R17   R(8,13)                 1.3468         estimate D2E/DX2                !
 ! R18   R(9,10)                 1.3427         estimate D2E/DX2                !
 ! R19   R(9,44)                 1.1035         estimate D2E/DX2                !
 ! R20   R(10,11)                1.3482         estimate D2E/DX2                !
 ! R21   R(10,43)                1.1018         estimate D2E/DX2                !
 ! R22   R(11,12)                1.3492         estimate D2E/DX2                !
 ! R23   R(11,16)                1.3529         estimate D2E/DX2                !
 ! R24   R(12,13)                1.3426         estimate D2E/DX2                !
 ! R25   R(12,15)                1.104          estimate D2E/DX2                !
 ! R26   R(13,14)                1.1035         estimate D2E/DX2                !
 ! R27   R(16,17)                1.4703         estimate D2E/DX2                !
 ! R28   R(16,20)                1.3403         estimate D2E/DX2                !
 ! R29   R(17,18)                1.4746         estimate D2E/DX2                !
 ! R30   R(18,19)                1.3435         estimate D2E/DX2                !
 ! R31   R(18,23)                1.3589         estimate D2E/DX2                !
 ! R32   R(19,20)                1.3362         estimate D2E/DX2                !
 ! R33   R(19,22)                1.0994         estimate D2E/DX2                !
 ! R34   R(20,21)                1.1026         estimate D2E/DX2                !
 ! R35   R(23,24)                1.3514         estimate D2E/DX2                !
 ! R36   R(23,28)                1.3521         estimate D2E/DX2                !
 ! R37   R(24,25)                1.3426         estimate D2E/DX2                !
 ! R38   R(24,42)                1.1032         estimate D2E/DX2                !
 ! R39   R(25,26)                1.3435         estimate D2E/DX2                !
 ! R40   R(25,41)                1.0983         estimate D2E/DX2                !
 ! R41   R(26,27)                1.3521         estimate D2E/DX2                !
 ! R42   R(26,32)                1.3541         estimate D2E/DX2                !
 ! R43   R(27,28)                1.3561         estimate D2E/DX2                !
 ! R44   R(27,31)                1.2683         estimate D2E/DX2                !
 ! R45   R(28,29)                1.2674         estimate D2E/DX2                !
 ! R46   R(29,30)                1.7595         estimate D2E/DX2                !
 ! R47   R(30,31)                1.7557         estimate D2E/DX2                !
 ! R48   R(32,33)                1.3493         estimate D2E/DX2                !
 ! R49   R(32,40)                1.0957         estimate D2E/DX2                !
 ! R50   R(33,34)                1.3203         estimate D2E/DX2                !
 ! R51   R(33,36)                1.3679         estimate D2E/DX2                !
 ! R52   R(34,35)                1.1594         estimate D2E/DX2                !
 ! R53   R(36,37)                1.2142         estimate D2E/DX2                !
 ! R54   R(36,38)                1.3574         estimate D2E/DX2                !
 ! R55   R(38,39)                0.9688         estimate D2E/DX2                !
 ! R56   R(45,46)                1.3477         estimate D2E/DX2                !
 ! R57   R(45,50)                1.3458         estimate D2E/DX2                !
 ! R58   R(46,47)                1.3425         estimate D2E/DX2                !
 ! R59   R(46,59)                1.1042         estimate D2E/DX2                !
 ! R60   R(47,48)                1.3468         estimate D2E/DX2                !
 ! R61   R(47,58)                1.102          estimate D2E/DX2                !
 ! R62   R(48,49)                1.3462         estimate D2E/DX2                !
 ! R63   R(48,53)                1.3753         estimate D2E/DX2                !
 ! R64   R(49,50)                1.3418         estimate D2E/DX2                !
 ! R65   R(49,52)                1.1045         estimate D2E/DX2                !
 ! R66   R(50,51)                1.1036         estimate D2E/DX2                !
 ! R67   R(53,54)                1.4157         estimate D2E/DX2                !
 ! R68   R(54,55)                1.116          estimate D2E/DX2                !
 ! R69   R(54,56)                1.1158         estimate D2E/DX2                !
 ! R70   R(54,57)                1.1154         estimate D2E/DX2                !
 ! R71   R(60,61)                1.342          estimate D2E/DX2                !
 ! R72   R(60,63)                1.1036         estimate D2E/DX2                !
 ! R73   R(61,62)                1.1043         estimate D2E/DX2                !
 ! A1    A(2,1,66)             107.7451         estimate D2E/DX2                !
 ! A2    A(2,1,67)             110.2044         estimate D2E/DX2                !
 ! A3    A(2,1,68)             110.4349         estimate D2E/DX2                !
 ! A4    A(66,1,67)            108.1196         estimate D2E/DX2                !
 ! A5    A(66,1,68)            108.2326         estimate D2E/DX2                !
 ! A6    A(67,1,68)            111.9625         estimate D2E/DX2                !
 ! A7    A(1,2,3)              118.5913         estimate D2E/DX2                !
 ! A8    A(2,3,4)              125.4311         estimate D2E/DX2                !
 ! A9    A(2,3,61)             119.1125         estimate D2E/DX2                !
 ! A10   A(4,3,61)             115.4551         estimate D2E/DX2                !
 ! A11   A(3,4,5)              122.0937         estimate D2E/DX2                !
 ! A12   A(3,4,65)             120.9443         estimate D2E/DX2                !
 ! A13   A(5,4,65)             116.961          estimate D2E/DX2                !
 ! A14   A(4,5,6)              122.2689         estimate D2E/DX2                !
 ! A15   A(4,5,64)             117.9303         estimate D2E/DX2                !
 ! A16   A(6,5,64)             119.7869         estimate D2E/DX2                !
 ! A17   A(5,6,7)              120.3877         estimate D2E/DX2                !
 ! A18   A(5,6,60)             115.8319         estimate D2E/DX2                !
 ! A19   A(7,6,60)             123.78           estimate D2E/DX2                !
 ! A20   A(6,7,8)              120.451          estimate D2E/DX2                !
 ! A21   A(6,7,45)             118.0788         estimate D2E/DX2                !
 ! A22   A(8,7,45)             120.7968         estimate D2E/DX2                !
 ! A23   A(7,8,9)              123.3837         estimate D2E/DX2                !
 ! A24   A(7,8,13)             121.7396         estimate D2E/DX2                !
 ! A25   A(9,8,13)             114.8752         estimate D2E/DX2                !
 ! A26   A(8,9,10)             122.4666         estimate D2E/DX2                !
 ! A27   A(8,9,44)             120.472          estimate D2E/DX2                !
 ! A28   A(10,9,44)            117.048          estimate D2E/DX2                !
 ! A29   A(9,10,11)            122.6401         estimate D2E/DX2                !
 ! A30   A(9,10,43)            115.4945         estimate D2E/DX2                !
 ! A31   A(11,10,43)           121.836          estimate D2E/DX2                !
 ! A32   A(10,11,12)           114.8908         estimate D2E/DX2                !
 ! A33   A(10,11,16)           121.9612         estimate D2E/DX2                !
 ! A34   A(12,11,16)           123.1478         estimate D2E/DX2                !
 ! A35   A(11,12,13)           122.3259         estimate D2E/DX2                !
 ! A36   A(11,12,15)           121.9186         estimate D2E/DX2                !
 ! A37   A(13,12,15)           115.747          estimate D2E/DX2                !
 ! A38   A(8,13,12)            122.7732         estimate D2E/DX2                !
 ! A39   A(8,13,14)            120.0415         estimate D2E/DX2                !
 ! A40   A(12,13,14)           117.184          estimate D2E/DX2                !
 ! A41   A(11,16,17)           125.5301         estimate D2E/DX2                !
 ! A42   A(11,16,20)           126.8906         estimate D2E/DX2                !
 ! A43   A(17,16,20)           107.5784         estimate D2E/DX2                !
 ! A44   A(16,17,18)           103.2132         estimate D2E/DX2                !
 ! A45   A(17,18,19)           106.6934         estimate D2E/DX2                !
 ! A46   A(17,18,23)           124.1779         estimate D2E/DX2                !
 ! A47   A(19,18,23)           129.0921         estimate D2E/DX2                !
 ! A48   A(18,19,20)           111.7418         estimate D2E/DX2                !
 ! A49   A(18,19,22)           128.6703         estimate D2E/DX2                !
 ! A50   A(20,19,22)           119.53           estimate D2E/DX2                !
 ! A51   A(16,20,19)           110.7169         estimate D2E/DX2                !
 ! A52   A(16,20,21)           127.3632         estimate D2E/DX2                !
 ! A53   A(19,20,21)           121.9171         estimate D2E/DX2                !
 ! A54   A(18,23,24)           121.4467         estimate D2E/DX2                !
 ! A55   A(18,23,28)           124.9686         estimate D2E/DX2                !
 ! A56   A(24,23,28)           113.5744         estimate D2E/DX2                !
 ! A57   A(23,24,25)           123.8686         estimate D2E/DX2                !
 ! A58   A(23,24,42)           121.8851         estimate D2E/DX2                !
 ! A59   A(25,24,42)           114.2333         estimate D2E/DX2                !
 ! A60   A(24,25,26)           122.6634         estimate D2E/DX2                !
 ! A61   A(24,25,41)           115.6139         estimate D2E/DX2                !
 ! A62   A(26,25,41)           121.7203         estimate D2E/DX2                !
 ! A63   A(25,26,27)           114.2777         estimate D2E/DX2                !
 ! A64   A(25,26,32)           124.8601         estimate D2E/DX2                !
 ! A65   A(27,26,32)           120.8621         estimate D2E/DX2                !
 ! A66   A(26,27,28)           122.9466         estimate D2E/DX2                !
 ! A67   A(26,27,31)           122.49           estimate D2E/DX2                !
 ! A68   A(28,27,31)           114.5486         estimate D2E/DX2                !
 ! A69   A(23,28,27)           122.6463         estimate D2E/DX2                !
 ! A70   A(23,28,29)           123.3709         estimate D2E/DX2                !
 ! A71   A(27,28,29)           113.9771         estimate D2E/DX2                !
 ! A72   A(28,29,30)           112.5304         estimate D2E/DX2                !
 ! A73   A(29,30,31)            86.0536         estimate D2E/DX2                !
 ! A74   A(27,31,30)           112.4018         estimate D2E/DX2                !
 ! A75   A(26,32,33)           132.5243         estimate D2E/DX2                !
 ! A76   A(26,32,40)           113.7873         estimate D2E/DX2                !
 ! A77   A(33,32,40)           113.6875         estimate D2E/DX2                !
 ! A78   A(32,33,34)           125.7677         estimate D2E/DX2                !
 ! A79   A(32,33,36)           119.4076         estimate D2E/DX2                !
 ! A80   A(34,33,36)           114.819          estimate D2E/DX2                !
 ! A81   A(33,36,37)           117.1148         estimate D2E/DX2                !
 ! A82   A(33,36,38)           124.942          estimate D2E/DX2                !
 ! A83   A(37,36,38)           117.9429         estimate D2E/DX2                !
 ! A84   A(36,38,39)           110.6635         estimate D2E/DX2                !
 ! A85   A(7,45,46)            122.3947         estimate D2E/DX2                !
 ! A86   A(7,45,50)            121.8228         estimate D2E/DX2                !
 ! A87   A(46,45,50)           115.7777         estimate D2E/DX2                !
 ! A88   A(45,46,47)           122.2653         estimate D2E/DX2                !
 ! A89   A(45,46,59)           120.0838         estimate D2E/DX2                !
 ! A90   A(47,46,59)           117.638          estimate D2E/DX2                !
 ! A91   A(46,47,48)           122.0329         estimate D2E/DX2                !
 ! A92   A(46,47,58)           117.1117         estimate D2E/DX2                !
 ! A93   A(48,47,58)           120.8554         estimate D2E/DX2                !
 ! A94   A(47,48,49)           115.5105         estimate D2E/DX2                !
 ! A95   A(47,48,53)           125.4467         estimate D2E/DX2                !
 ! A96   A(49,48,53)           119.0345         estimate D2E/DX2                !
 ! A97   A(48,49,50)           122.6104         estimate D2E/DX2                !
 ! A98   A(48,49,52)           118.654          estimate D2E/DX2                !
 ! A99   A(50,49,52)           118.7351         estimate D2E/DX2                !
 ! A100  A(45,50,49)           121.7947         estimate D2E/DX2                !
 ! A101  A(45,50,51)           119.9459         estimate D2E/DX2                !
 ! A102  A(49,50,51)           118.2523         estimate D2E/DX2                !
 ! A103  A(48,53,54)           118.7388         estimate D2E/DX2                !
 ! A104  A(53,54,55)           110.1132         estimate D2E/DX2                !
 ! A105  A(53,54,56)           110.554          estimate D2E/DX2                !
 ! A106  A(53,54,57)           107.7378         estimate D2E/DX2                !
 ! A107  A(55,54,56)           111.9041         estimate D2E/DX2                !
 ! A108  A(55,54,57)           108.2671         estimate D2E/DX2                !
 ! A109  A(56,54,57)           108.1252         estimate D2E/DX2                !
 ! A110  A(6,60,61)            121.6848         estimate D2E/DX2                !
 ! A111  A(6,60,63)            120.2959         estimate D2E/DX2                !
 ! A112  A(61,60,63)           118.0135         estimate D2E/DX2                !
 ! A113  A(3,61,60)            122.6647         estimate D2E/DX2                !
 ! A114  A(3,61,62)            118.6359         estimate D2E/DX2                !
 ! A115  A(60,61,62)           118.6994         estimate D2E/DX2                !
 ! A116  L(33,34,35,7,-1)      179.4866         estimate D2E/DX2                !
 ! A117  L(33,34,35,7,-2)      179.5279         estimate D2E/DX2                !
 ! D1    D(66,1,2,3)          -179.3677         estimate D2E/DX2                !
 ! D2    D(67,1,2,3)           -61.6112         estimate D2E/DX2                !
 ! D3    D(68,1,2,3)            62.6111         estimate D2E/DX2                !
 ! D4    D(1,2,3,4)             -1.5367         estimate D2E/DX2                !
 ! D5    D(1,2,3,61)           178.0356         estimate D2E/DX2                !
 ! D6    D(2,3,4,5)            179.7044         estimate D2E/DX2                !
 ! D7    D(2,3,4,65)             0.0784         estimate D2E/DX2                !
 ! D8    D(61,3,4,5)             0.1183         estimate D2E/DX2                !
 ! D9    D(61,3,4,65)         -179.5077         estimate D2E/DX2                !
 ! D10   D(2,3,61,60)         -179.5391         estimate D2E/DX2                !
 ! D11   D(2,3,61,62)            0.4969         estimate D2E/DX2                !
 ! D12   D(4,3,61,60)            0.0749         estimate D2E/DX2                !
 ! D13   D(4,3,61,62)         -179.8891         estimate D2E/DX2                !
 ! D14   D(3,4,5,6)             -0.3255         estimate D2E/DX2                !
 ! D15   D(3,4,5,64)          -178.9672         estimate D2E/DX2                !
 ! D16   D(65,4,5,6)           179.3146         estimate D2E/DX2                !
 ! D17   D(65,4,5,64)            0.6729         estimate D2E/DX2                !
 ! D18   D(4,5,6,7)           -179.4742         estimate D2E/DX2                !
 ! D19   D(4,5,6,60)             0.3132         estimate D2E/DX2                !
 ! D20   D(64,5,6,7)            -0.857          estimate D2E/DX2                !
 ! D21   D(64,5,6,60)          178.9304         estimate D2E/DX2                !
 ! D22   D(5,6,7,8)            144.3519         estimate D2E/DX2                !
 ! D23   D(5,6,7,45)           -44.9771         estimate D2E/DX2                !
 ! D24   D(60,6,7,8)           -35.4179         estimate D2E/DX2                !
 ! D25   D(60,6,7,45)          135.2531         estimate D2E/DX2                !
 ! D26   D(5,6,60,61)           -0.1198         estimate D2E/DX2                !
 ! D27   D(5,6,60,63)          178.9834         estimate D2E/DX2                !
 ! D28   D(7,6,60,61)          179.6595         estimate D2E/DX2                !
 ! D29   D(7,6,60,63)           -1.2372         estimate D2E/DX2                !
 ! D30   D(6,7,8,9)            149.0459         estimate D2E/DX2                !
 ! D31   D(6,7,8,13)           -31.4305         estimate D2E/DX2                !
 ! D32   D(45,7,8,9)           -21.3695         estimate D2E/DX2                !
 ! D33   D(45,7,8,13)          158.1541         estimate D2E/DX2                !
 ! D34   D(6,7,45,46)          -35.8397         estimate D2E/DX2                !
 ! D35   D(6,7,45,50)          143.3269         estimate D2E/DX2                !
 ! D36   D(8,7,45,46)          134.7976         estimate D2E/DX2                !
 ! D37   D(8,7,45,50)          -46.0358         estimate D2E/DX2                !
 ! D38   D(7,8,9,10)           179.7643         estimate D2E/DX2                !
 ! D39   D(7,8,9,44)            -1.6049         estimate D2E/DX2                !
 ! D40   D(13,8,9,10)            0.2109         estimate D2E/DX2                !
 ! D41   D(13,8,9,44)          178.8416         estimate D2E/DX2                !
 ! D42   D(7,8,13,12)          178.9205         estimate D2E/DX2                !
 ! D43   D(7,8,13,14)           -1.5122         estimate D2E/DX2                !
 ! D44   D(9,8,13,12)           -1.518          estimate D2E/DX2                !
 ! D45   D(9,8,13,14)          178.0494         estimate D2E/DX2                !
 ! D46   D(8,9,10,11)            1.2321         estimate D2E/DX2                !
 ! D47   D(8,9,10,43)          179.2922         estimate D2E/DX2                !
 ! D48   D(44,9,10,11)        -177.4429         estimate D2E/DX2                !
 ! D49   D(44,9,10,43)           0.6172         estimate D2E/DX2                !
 ! D50   D(9,10,11,12)          -1.2947         estimate D2E/DX2                !
 ! D51   D(9,10,11,16)         178.8697         estimate D2E/DX2                !
 ! D52   D(43,10,11,12)       -179.2336         estimate D2E/DX2                !
 ! D53   D(43,10,11,16)          0.9308         estimate D2E/DX2                !
 ! D54   D(10,11,12,13)         -0.0079         estimate D2E/DX2                !
 ! D55   D(10,11,12,15)       -178.8989         estimate D2E/DX2                !
 ! D56   D(16,11,12,13)        179.8254         estimate D2E/DX2                !
 ! D57   D(16,11,12,15)          0.9345         estimate D2E/DX2                !
 ! D58   D(10,11,16,17)       -176.3001         estimate D2E/DX2                !
 ! D59   D(10,11,16,20)          4.0971         estimate D2E/DX2                !
 ! D60   D(12,11,16,17)          3.878          estimate D2E/DX2                !
 ! D61   D(12,11,16,20)       -175.7248         estimate D2E/DX2                !
 ! D62   D(11,12,13,8)           1.4701         estimate D2E/DX2                !
 ! D63   D(11,12,13,14)       -178.1089         estimate D2E/DX2                !
 ! D64   D(15,12,13,8)        -179.575          estimate D2E/DX2                !
 ! D65   D(15,12,13,14)          0.846          estimate D2E/DX2                !
 ! D66   D(11,16,17,18)        178.3741         estimate D2E/DX2                !
 ! D67   D(20,16,17,18)         -1.9591         estimate D2E/DX2                !
 ! D68   D(11,16,20,19)       -179.4633         estimate D2E/DX2                !
 ! D69   D(11,16,20,21)         -0.0727         estimate D2E/DX2                !
 ! D70   D(17,16,20,19)          0.8758         estimate D2E/DX2                !
 ! D71   D(17,16,20,21)       -179.7336         estimate D2E/DX2                !
 ! D72   D(16,17,18,19)          2.3558         estimate D2E/DX2                !
 ! D73   D(16,17,18,23)       -175.6165         estimate D2E/DX2                !
 ! D74   D(17,18,19,20)         -2.0032         estimate D2E/DX2                !
 ! D75   D(17,18,19,22)       -179.1824         estimate D2E/DX2                !
 ! D76   D(23,18,19,20)        175.8353         estimate D2E/DX2                !
 ! D77   D(23,18,19,22)         -1.3438         estimate D2E/DX2                !
 ! D78   D(17,18,23,24)          4.4995         estimate D2E/DX2                !
 ! D79   D(17,18,23,28)       -176.7441         estimate D2E/DX2                !
 ! D80   D(19,18,23,24)       -172.9978         estimate D2E/DX2                !
 ! D81   D(19,18,23,28)          5.7586         estimate D2E/DX2                !
 ! D82   D(18,19,20,16)          0.7399         estimate D2E/DX2                !
 ! D83   D(18,19,20,21)       -178.6895         estimate D2E/DX2                !
 ! D84   D(22,19,20,16)        178.2089         estimate D2E/DX2                !
 ! D85   D(22,19,20,21)         -1.2205         estimate D2E/DX2                !
 ! D86   D(18,23,24,25)        177.4072         estimate D2E/DX2                !
 ! D87   D(18,23,24,42)         -1.205          estimate D2E/DX2                !
 ! D88   D(28,23,24,25)         -1.4809         estimate D2E/DX2                !
 ! D89   D(28,23,24,42)        179.9068         estimate D2E/DX2                !
 ! D90   D(18,23,28,27)       -177.5041         estimate D2E/DX2                !
 ! D91   D(18,23,28,29)          3.4132         estimate D2E/DX2                !
 ! D92   D(24,23,28,27)          1.3383         estimate D2E/DX2                !
 ! D93   D(24,23,28,29)       -177.7444         estimate D2E/DX2                !
 ! D94   D(23,24,25,26)          0.3981         estimate D2E/DX2                !
 ! D95   D(23,24,25,41)       -179.049          estimate D2E/DX2                !
 ! D96   D(42,24,25,26)        179.1059         estimate D2E/DX2                !
 ! D97   D(42,24,25,41)         -0.3412         estimate D2E/DX2                !
 ! D98   D(24,25,26,27)          0.8722         estimate D2E/DX2                !
 ! D99   D(24,25,26,32)       -179.0367         estimate D2E/DX2                !
 ! D100  D(41,25,26,27)       -179.7139         estimate D2E/DX2                !
 ! D101  D(41,25,26,32)          0.3772         estimate D2E/DX2                !
 ! D102  D(25,26,27,28)         -0.9974         estimate D2E/DX2                !
 ! D103  D(25,26,27,31)       -179.517          estimate D2E/DX2                !
 ! D104  D(32,26,27,28)        178.9156         estimate D2E/DX2                !
 ! D105  D(32,26,27,31)          0.3959         estimate D2E/DX2                !
 ! D106  D(25,26,32,33)          2.0996         estimate D2E/DX2                !
 ! D107  D(25,26,32,40)       -178.2676         estimate D2E/DX2                !
 ! D108  D(27,26,32,33)       -177.8036         estimate D2E/DX2                !
 ! D109  D(27,26,32,40)          1.8291         estimate D2E/DX2                !
 ! D110  D(26,27,28,23)         -0.1325         estimate D2E/DX2                !
 ! D111  D(26,27,28,29)        179.0291         estimate D2E/DX2                !
 ! D112  D(31,27,28,23)        178.4948         estimate D2E/DX2                !
 ! D113  D(31,27,28,29)         -2.3436         estimate D2E/DX2                !
 ! D114  D(26,27,31,30)        175.6872         estimate D2E/DX2                !
 ! D115  D(28,27,31,30)         -2.9471         estimate D2E/DX2                !
 ! D116  D(23,28,29,30)       -174.3804         estimate D2E/DX2                !
 ! D117  D(27,28,29,30)          6.4649         estimate D2E/DX2                !
 ! D118  D(28,29,30,31)         -6.5432         estimate D2E/DX2                !
 ! D119  D(29,30,31,27)          5.214          estimate D2E/DX2                !
 ! D120  D(26,32,33,34)          0.1687         estimate D2E/DX2                !
 ! D121  D(26,32,33,36)        179.251          estimate D2E/DX2                !
 ! D122  D(40,32,33,34)       -179.4643         estimate D2E/DX2                !
 ! D123  D(40,32,33,36)         -0.382          estimate D2E/DX2                !
 ! D124  D(32,33,36,37)        179.6414         estimate D2E/DX2                !
 ! D125  D(32,33,36,38)         -0.1699         estimate D2E/DX2                !
 ! D126  D(34,33,36,37)         -1.179          estimate D2E/DX2                !
 ! D127  D(34,33,36,38)        179.0097         estimate D2E/DX2                !
 ! D128  D(33,36,38,39)         -0.3717         estimate D2E/DX2                !
 ! D129  D(37,36,38,39)        179.8185         estimate D2E/DX2                !
 ! D130  D(7,45,46,47)        -179.9855         estimate D2E/DX2                !
 ! D131  D(7,45,46,59)          -1.323          estimate D2E/DX2                !
 ! D132  D(50,45,46,47)          0.8008         estimate D2E/DX2                !
 ! D133  D(50,45,46,59)        179.4633         estimate D2E/DX2                !
 ! D134  D(7,45,50,49)        -179.7084         estimate D2E/DX2                !
 ! D135  D(7,45,50,51)          -0.6956         estimate D2E/DX2                !
 ! D136  D(46,45,50,49)         -0.4898         estimate D2E/DX2                !
 ! D137  D(46,45,50,51)        178.523          estimate D2E/DX2                !
 ! D138  D(45,46,47,48)         -1.0461         estimate D2E/DX2                !
 ! D139  D(45,46,47,58)        178.9088         estimate D2E/DX2                !
 ! D140  D(59,46,47,48)       -179.7397         estimate D2E/DX2                !
 ! D141  D(59,46,47,58)          0.2152         estimate D2E/DX2                !
 ! D142  D(46,47,48,49)          0.8757         estimate D2E/DX2                !
 ! D143  D(46,47,48,53)        179.8086         estimate D2E/DX2                !
 ! D144  D(58,47,48,49)       -179.0775         estimate D2E/DX2                !
 ! D145  D(58,47,48,53)         -0.1446         estimate D2E/DX2                !
 ! D146  D(47,48,49,50)         -0.5712         estimate D2E/DX2                !
 ! D147  D(47,48,49,52)        179.6935         estimate D2E/DX2                !
 ! D148  D(53,48,49,50)       -179.5769         estimate D2E/DX2                !
 ! D149  D(53,48,49,52)          0.6878         estimate D2E/DX2                !
 ! D150  D(47,48,53,54)         -5.0762         estimate D2E/DX2                !
 ! D151  D(49,48,53,54)        173.8223         estimate D2E/DX2                !
 ! D152  D(48,49,50,45)          0.4116         estimate D2E/DX2                !
 ! D153  D(48,49,50,51)       -178.6173         estimate D2E/DX2                !
 ! D154  D(52,49,50,45)       -179.8532         estimate D2E/DX2                !
 ! D155  D(52,49,50,51)          1.1178         estimate D2E/DX2                !
 ! D156  D(48,53,54,55)        -60.6941         estimate D2E/DX2                !
 ! D157  D(48,53,54,56)         63.4728         estimate D2E/DX2                !
 ! D158  D(48,53,54,57)       -178.5731         estimate D2E/DX2                !
 ! D159  D(6,60,61,3)           -0.0723         estimate D2E/DX2                !
 ! D160  D(6,60,61,62)         179.8916         estimate D2E/DX2                !
 ! D161  D(63,60,61,3)        -179.1953         estimate D2E/DX2                !
 ! D162  D(63,60,61,62)          0.7687         estimate D2E/DX2                !
 --------------------------------------------------------------------------------
 Trust Radius=3.00D-01 FncErr=1.00D-07 GrdErr=1.00D-06
 Number of steps in this run=    362 maximum allowed number of steps=    408.
 GradGradGradGradGradGradGradGradGradGradGradGradGradGradGradGradGradGrad

 Stoichiometry    C34H24N4O4S2
 Framework group  C1[X(C34H24N4O4S2)]
 Deg. of freedom   198
 Full point group                 C1      NOp   1
 Largest Abelian subgroup         C1      NOp   1
 Largest concise Abelian subgroup C1      NOp   1
                         Standard orientation:                         
 ---------------------------------------------------------------------
 Center     Atomic      Atomic             Coordinates (Angstroms)
 Number     Number       Type             X           Y           Z
 ---------------------------------------------------------------------
      1          6           0       -7.441407    6.006035   -0.067535
      2          8           0       -6.385812    5.429467    0.678237
      3          6           0       -6.057111    4.114224    0.445353
      4          6           0       -6.678738    3.296533   -0.425786
      5          6           0       -6.297449    2.022596   -0.604183
      6          6           0       -5.265807    1.479788    0.069926
      7          7           0       -4.896613    0.155965   -0.153990
      8          6           0       -3.553912   -0.220070   -0.113355
      9          6           0       -3.137261   -1.440013    0.277999
     10          6           0       -1.839613   -1.783950    0.305645
     11          6           0       -0.853392   -0.929062   -0.032276
     12          6           0       -1.270615    0.291669   -0.427228
     13          6           0       -2.570315    0.624441   -0.478159
     14          1           0       -2.817851    1.635600   -0.844245
     15          1           0       -0.561952    1.075629   -0.746762
     16          6           0        0.451179   -1.283195    0.022034
     17         16           0        1.589852   -0.394771   -0.253250
     18          6           0        2.758868   -1.261266   -0.014402
     19          6           0        2.280587   -2.478413    0.293546
     20          6           0        0.944809   -2.492034    0.324513
     21          1           0        0.376931   -3.401619    0.581039
     22          1           0        2.837846   -3.391007    0.548994
     23          6           0        4.048193   -0.835268   -0.066517
     24          6           0        4.353178    0.466931   -0.260397
     25          6           0        5.606419    0.948440   -0.270239
     26          6           0        6.684836    0.166966   -0.093452
     27          6           0        6.399768   -1.143839    0.075879
     28          6           0        5.132929   -1.627536    0.087840
     29          7           0        5.062736   -2.883955    0.239148
     30         16           0        6.629889   -3.611609    0.571288
     31          7           0        7.299324   -2.017880    0.264106
     32          6           0        7.965272    0.607181   -0.076565
     33          6           0        8.507844    1.838220   -0.179912
     34          6           0        7.838605    2.966449   -0.329265
     35          7           0        7.241847    3.953038   -0.450898
     36          6           0        9.866539    1.981250   -0.112022
     37          8           0       10.310441    3.106537   -0.216520
     38          8           0       10.747905    0.963105    0.058800
     39          1           0       10.282368    0.116669    0.132474
     40          1           0        8.705268   -0.190719    0.050994
     41          1           0        5.697495    2.032125   -0.423736
     42          1           0        3.572548    1.233203   -0.403537
     43          1           0       -1.627439   -2.806624    0.656345
     44          1           0       -3.864719   -2.198510    0.614532
     45          6           0       -5.904067   -0.803326   -0.220072
     46          6           0       -7.010042   -0.742970    0.547751
     47          6           0       -7.979507   -1.669335    0.482116
     48          6           0       -7.917582   -2.708904   -0.371945
     49          6           0       -6.812370   -2.764358   -1.138639
     50          6           0       -5.838676   -1.843576   -1.071388
     51          1           0       -4.974448   -1.946641   -1.749950
     52          1           0       -6.705523   -3.598845   -1.854201
     53          8           0       -8.865744   -3.697442   -0.495218
     54          6           0       -9.959522   -3.707402    0.403504
     55          1           0       -9.593806   -3.819912    1.451863
     56          1           0      -10.580122   -2.789030    0.275456
     57          1           0      -10.593379   -4.591602    0.157557
     58          1           0       -8.838231   -1.546664    1.161859
     59          1           0       -7.133072    0.076387    1.277665
     60          6           0       -4.641324    2.294132    0.942396
     61          6           0       -5.028724    3.566640    1.120192
     62          1           0       -4.482647    4.190179    1.849838
     63          1           0       -3.796735    1.920246    1.546332
     64          1           0       -6.844658    1.418410   -1.349014
     65          1           0       -7.526886    3.653652   -1.031711
     66          1           0       -7.544583    7.068777    0.255007
     67          1           0       -7.194697    5.996025   -1.155952
     68          1           0       -8.402488    5.480998    0.147453
 ---------------------------------------------------------------------
 Rotational constants (GHZ):      0.1231415      0.0207899      0.0179674
 Standard basis: 6-311G(d,p) (5D, 7F)
 There are   996 symmetry adapted cartesian basis functions of A   symmetry.
 There are   952 symmetry adapted basis functions of A   symmetry.
   952 basis functions,  1628 primitive gaussians,   996 cartesian basis functions
   160 alpha electrons      160 beta electrons
       nuclear repulsion energy      4922.9831051247 Hartrees.
 NAtoms=   68 NActive=   68 NUniq=   68 SFac= 1.00D+00 NAtFMM=   60 NAOKFM=T Big=T
 Integral buffers will be    131072 words long.
 Raffenetti 2 integral format.
 Two-electron integral symmetry is turned on.
 One-electron integrals computed using PRISM.
 NBasis=   952 RedAO= T EigKep=  6.70D-05  NBF=   952
 NBsUse=   952 1.00D-06 EigRej= -1.00D+00 NBFU=   952
 ExpMin= 7.71D-02 ExpMax= 9.34D+04 ExpMxC= 3.17D+03 IAcc=2 IRadAn=         4 AccDes= 0.00D+00
 Harris functional with IExCor=  402 and IRadAn=       4 diagonalized for initial guess.
 HarFok:  IExCor=  402 AccDes= 0.00D+00 IRadAn=         4 IDoV= 1 UseB2=F ITyADJ=14
 ICtDFT=  3500011 ScaDFX=  1.000000  1.000000  1.000000  1.000000
 FoFCou: FMM=F IPFlag=           0 FMFlag=      100000 FMFlg1=        2001
         NFxFlg=           0 DoJE=T BraDBF=F KetDBF=T FulRan=T
         wScrn=  0.000000 ICntrl=     500 IOpCl=  0 I1Cent=   200000004 NGrid=           0
         NMat0=    1 NMatS0=      1 NMatT0=    0 NMatD0=    1 NMtDS0=    0 NMtDT0=    0
 Petite list used in FoFCou.
 Requested convergence on RMS density matrix=1.00D-08 within 128 cycles.
 Requested convergence on MAX density matrix=1.00D-06.
 Requested convergence on             energy=1.00D-06.
 No special actions if energy rises.
 Integral accuracy reduced to 1.0D-05 until final iterations.
 EnCoef did     1 forward-backward iterations
 EnCoef did     3 forward-backward iterations
 Initial convergence to 1.0D-05 achieved.  Increase integral accuracy.
 SCF Done:  E(RB3LYP) =  -2626.48493912     A.U. after   20 cycles
            NFock= 20  Conv=0.36D-08     -V/T= 2.0006

 **********************************************************************

            Population analysis using the SCF density.

 **********************************************************************

 Orbital symmetries:
       Occupied  (A) (A) (A) (A) (A) (A) (A) (A) (A) (A) (A) (A)
                 (A) (A) (A) (A) (A) (A) (A) (A) (A) (A) (A) (A)
                 (A) (A) (A) (A) (A) (A) (A) (A) (A) (A) (A) (A)
                 (A) (A) (A) (A) (A) (A) (A) (A) (A) (A) (A) (A)
                 (A) (A) (A) (A) (A) (A) (A) (A) (A) (A) (A) (A)
                 (A) (A) (A) (A) (A) (A) (A) (A) (A) (A) (A) (A)
                 (A) (A) (A) (A) (A) (A) (A) (A) (A) (A) (A) (A)
                 (A) (A) (A) (A) (A) (A) (A) (A) (A) (A) (A) (A)
                 (A) (A) (A) (A) (A) (A) (A) (A) (A) (A) (A) (A)
                 (A) (A) (A) (A) (A) (A) (A) (A) (A) (A) (A) (A)
                 (A) (A) (A) (A) (A) (A) (A) (A) (A) (A) (A) (A)
                 (A) (A) (A) (A) (A) (A) (A) (A) (A) (A) (A) (A)
                 (A) (A) (A) (A) (A) (A) (A) (A) (A) (A) (A) (A)
                 (A) (A) (A) (A)
       Virtual   (A) (A) (A) (A) (A) (A) (A) (A) (A) (A) (A) (A)
                 (A) (A) (A) (A) (A) (A) (A) (A) (A) (A) (A) (A)
                 (A) (A) (A) (A) (A) (A) (A) (A) (A) (A) (A) (A)
                 (A) (A) (A) (A) (A) (A) (A) (A) (A) (A) (A) (A)
                 (A) (A) (A) (A) (A) (A) (A) (A) (A) (A) (A) (A)
                 (A) (A) (A) (A) (A) (A) (A) (A) (A) (A) (A) (A)
                 (A) (A) (A) (A) (A) (A) (A) (A) (A) (A) (A) (A)
                 (A) (A) (A) (A) (A) (A) (A) (A) (A) (A) (A) (A)
                 (A) (A) (A) (A) (A) (A) (A) (A) (A) (A) (A) (A)
                 (A) (A) (A) (A) (A) (A) (A) (A) (A) (A) (A) (A)
                 (A) (A) (A) (A) (A) (A) (A) (A) (A) (A) (A) (A)
                 (A) (A) (A) (A) (A) (A) (A) (A) (A) (A) (A) (A)
                 (A) (A) (A) (A) (A) (A) (A) (A) (A) (A) (A) (A)
                 (A) (A) (A) (A) (A) (A) (A) (A) (A) (A) (A) (A)
                 (A) (A) (A) (A) (A) (A) (A) (A) (A) (A) (A) (A)
                 (A) (A) (A) (A) (A) (A) (A) (A) (A) (A) (A) (A)
                 (A) (A) (A) (A) (A) (A) (A) (A) (A) (A) (A) (A)
                 (A) (A) (A) (A) (A) (A) (A) (A) (A) (A) (A) (A)
                 (A) (A) (A) (A) (A) (A) (A) (A) (A) (A) (A) (A)
                 (A) (A) (A) (A) (A) (A) (A) (A) (A) (A) (A) (A)
                 (A) (A) (A) (A) (A) (A) (A) (A) (A) (A) (A) (A)
                 (A) (A) (A) (A) (A) (A) (A) (A) (A) (A) (A) (A)
                 (A) (A) (A) (A) (A) (A) (A) (A) (A) (A) (A) (A)
                 (A) (A) (A) (A) (A) (A) (A) (A) (A) (A) (A) (A)
                 (A) (A) (A) (A) (A) (A) (A) (A) (A) (A) (A) (A)
                 (A) (A) (A) (A) (A) (A) (A) (A) (A) (A) (A) (A)
                 (A) (A) (A) (A) (A) (A) (A) (A) (A) (A) (A) (A)
                 (A) (A) (A) (A) (A) (A) (A) (A) (A) (A) (A) (A)
                 (A) (A) (A) (A) (A) (A) (A) (A) (A) (A) (A) (A)
                 (A) (A) (A) (A) (A) (A) (A) (A) (A) (A) (A) (A)
                 (A) (A) (A) (A) (A) (A) (A) (A) (A) (A) (A) (A)
                 (A) (A) (A) (A) (A) (A) (A) (A) (A) (A) (A) (A)
                 (A) (A) (A) (A) (A) (A) (A) (A) (A) (A) (A) (A)
                 (A) (A) (A) (A) (A) (A) (A) (A) (A) (A) (A) (A)
                 (A) (A) (A) (A) (A) (A) (A) (A) (A) (A) (A) (A)
                 (A) (A) (A) (A) (A) (A) (A) (A) (A) (A) (A) (A)
                 (A) (A) (A) (A) (A) (A) (A) (A) (A) (A) (A) (A)
                 (A) (A) (A) (A) (A) (A) (A) (A) (A) (A) (A) (A)
                 (A) (A) (A) (A) (A) (A) (A) (A) (A) (A) (A) (A)
                 (A) (A) (A) (A) (A) (A) (A) (A) (A) (A) (A) (A)
                 (A) (A) (A) (A) (A) (A) (A) (A) (A) (A) (A) (A)
                 (A) (A) (A) (A) (A) (A) (A) (A) (A) (A) (A) (A)
                 (A) (A) (A) (A) (A) (A) (A) (A) (A) (A) (A) (A)
                 (A) (A) (A) (A) (A) (A) (A) (A) (A) (A) (A) (A)
                 (A) (A) (A) (A) (A) (A) (A) (A) (A) (A) (A) (A)
                 (A) (A) (A) (A) (A) (A) (A) (A) (A) (A) (A) (A)
                 (A) (A) (A) (A) (A) (A) (A) (A) (A) (A) (A) (A)
                 (A) (A) (A) (A) (A) (A) (A) (A) (A) (A) (A) (A)
                 (A) (A) (A) (A) (A) (A) (A) (A) (A) (A) (A) (A)
                 (A) (A) (A) (A) (A) (A) (A) (A) (A) (A) (A) (A)
                 (A) (A) (A) (A) (A) (A) (A) (A) (A) (A) (A) (A)
                 (A) (A) (A) (A) (A) (A) (A) (A) (A) (A) (A) (A)
                 (A) (A) (A) (A) (A) (A) (A) (A) (A) (A) (A) (A)
                 (A) (A) (A) (A) (A) (A) (A) (A) (A) (A) (A) (A)
                 (A) (A) (A) (A) (A) (A) (A) (A) (A) (A) (A) (A)
                 (A) (A) (A) (A) (A) (A) (A) (A) (A) (A) (A) (A)
                 (A) (A) (A) (A) (A) (A) (A) (A) (A) (A) (A) (A)
                 (A) (A) (A) (A) (A) (A) (A) (A) (A) (A) (A) (A)
                 (A) (A) (A) (A) (A) (A) (A) (A) (A) (A) (A) (A)
                 (A) (A) (A) (A) (A) (A) (A) (A) (A) (A) (A) (A)
                 (A) (A) (A) (A) (A) (A) (A) (A) (A) (A) (A) (A)
                 (A) (A) (A) (A) (A) (A) (A) (A) (A) (A) (A) (A)
                 (A) (A) (A) (A) (A) (A) (A) (A) (A) (A) (A) (A)
                 (A) (A) (A) (A) (A) (A) (A) (A) (A) (A) (A) (A)
                 (A) (A) (A) (A) (A) (A) (A) (A) (A) (A) (A) (A)
                 (A) (A) (A) (A) (A) (A) (A) (A) (A) (A) (A) (A)
 The electronic state is 1-A.
 Alpha  occ. eigenvalues --  -88.95455 -88.87206 -19.16067 -19.15702 -19.15618
 Alpha  occ. eigenvalues --  -19.08460 -14.35816 -14.35737 -14.35538 -14.30424
 Alpha  occ. eigenvalues --  -10.28944 -10.24086 -10.23959 -10.23244 -10.23164
 Alpha  occ. eigenvalues --  -10.22984 -10.22780 -10.22151 -10.21686 -10.21586
 Alpha  occ. eigenvalues --  -10.21003 -10.20942 -10.20435 -10.19977 -10.19875
 Alpha  occ. eigenvalues --  -10.19461 -10.19453 -10.19388 -10.19293 -10.18291
 Alpha  occ. eigenvalues --  -10.18112 -10.18091 -10.17678 -10.17644 -10.17635
 Alpha  occ. eigenvalues --  -10.17587 -10.17582 -10.17568 -10.17564 -10.17546
 Alpha  occ. eigenvalues --  -10.17479 -10.17454 -10.17310 -10.17241  -8.03464
 Alpha  occ. eigenvalues --   -7.97634  -5.99919  -5.99428  -5.98961  -5.93780
 Alpha  occ. eigenvalues --   -5.93313  -5.93181  -1.10094  -1.07450  -1.07364
 Alpha  occ. eigenvalues --   -1.04277  -1.01388  -1.01044  -1.00302  -0.92853
 Alpha  occ. eigenvalues --   -0.92357  -0.90989  -0.90712  -0.89963  -0.88313
 Alpha  occ. eigenvalues --   -0.86055  -0.83874  -0.81006  -0.79853  -0.79398
 Alpha  occ. eigenvalues --   -0.78583  -0.77976  -0.77478  -0.77006  -0.76813
 Alpha  occ. eigenvalues --   -0.75206  -0.72023  -0.71361  -0.70000  -0.69046
 Alpha  occ. eigenvalues --   -0.66278  -0.65720  -0.64567  -0.64179  -0.63444
 Alpha  occ. eigenvalues --   -0.63109  -0.62341  -0.61831  -0.60497  -0.59877
 Alpha  occ. eigenvalues --   -0.59109  -0.57624  -0.56936  -0.56510  -0.55894
 Alpha  occ. eigenvalues --   -0.54357  -0.53493  -0.53045  -0.52646  -0.51883
 Alpha  occ. eigenvalues --   -0.51462  -0.50298  -0.49811  -0.49510  -0.48401
 Alpha  occ. eigenvalues --   -0.48222  -0.48124  -0.47571  -0.46629  -0.46187
 Alpha  occ. eigenvalues --   -0.45776  -0.45648  -0.45584  -0.44339  -0.44133
 Alpha  occ. eigenvalues --   -0.43933  -0.43870  -0.43476  -0.43324  -0.42961
 Alpha  occ. eigenvalues --   -0.42776  -0.42707  -0.42028  -0.41575  -0.41013
 Alpha  occ. eigenvalues --   -0.40964  -0.40908  -0.40611  -0.40154  -0.39953
 Alpha  occ. eigenvalues --   -0.39779  -0.39431  -0.38789  -0.37570  -0.36960
 Alpha  occ. eigenvalues --   -0.36693  -0.36433  -0.36108  -0.35885  -0.34383
 Alpha  occ. eigenvalues --   -0.34123  -0.33722  -0.33547  -0.33281  -0.33093
 Alpha  occ. eigenvalues --   -0.32235  -0.31113  -0.30773  -0.30190  -0.29368
 Alpha  occ. eigenvalues --   -0.29203  -0.28599  -0.28019  -0.27473  -0.27329
 Alpha  occ. eigenvalues --   -0.26640  -0.25898  -0.25100  -0.22594  -0.19294
 Alpha virt. eigenvalues --   -0.13304  -0.08415  -0.06875  -0.05052  -0.02975
 Alpha virt. eigenvalues --   -0.01622  -0.00705  -0.00393  -0.00140   0.01236
 Alpha virt. eigenvalues --    0.01425   0.02416   0.02586   0.02608   0.02661
 Alpha virt. eigenvalues --    0.03490   0.03552   0.04099   0.04833   0.05161
 Alpha virt. eigenvalues --    0.05575   0.05773   0.06048   0.06741   0.06893
 Alpha virt. eigenvalues --    0.07121   0.07250   0.08788   0.09276   0.09529
 Alpha virt. eigenvalues --    0.09740   0.10069   0.10093   0.10379   0.10514
 Alpha virt. eigenvalues --    0.10953   0.11142   0.12023   0.13343   0.13659
 Alpha virt. eigenvalues --    0.14787   0.15048   0.15379   0.15689   0.15858
 Alpha virt. eigenvalues --    0.15911   0.15970   0.16582   0.17023   0.17508
 Alpha virt. eigenvalues --    0.17933   0.17951   0.19256   0.19910   0.20306
 Alpha virt. eigenvalues --    0.20577   0.21414   0.21785   0.21838   0.22430
 Alpha virt. eigenvalues --    0.23549   0.23940   0.24656   0.24942   0.25334
 Alpha virt. eigenvalues --    0.26255   0.26849   0.27315   0.27534   0.28275
 Alpha virt. eigenvalues --    0.28707   0.28949   0.29725   0.29985   0.30064
 Alpha virt. eigenvalues --    0.30197   0.30836   0.31711   0.31949   0.32025
 Alpha virt. eigenvalues --    0.32361   0.32780   0.33278   0.33405   0.33733
 Alpha virt. eigenvalues --    0.33863   0.34044   0.34348   0.35055   0.35371
 Alpha virt. eigenvalues --    0.36017   0.36304   0.36647   0.36856   0.37005
 Alpha virt. eigenvalues --    0.37475   0.37751   0.37983   0.38436   0.38558
 Alpha virt. eigenvalues --    0.38697   0.39244   0.39429   0.39683   0.39816
 Alpha virt. eigenvalues --    0.40553   0.40817   0.40862   0.41334   0.41365
 Alpha virt. eigenvalues --    0.41593   0.41929   0.42267   0.42527   0.42614
 Alpha virt. eigenvalues --    0.42819   0.43161   0.43240   0.43810   0.43923
 Alpha virt. eigenvalues --    0.44072   0.44464   0.44726   0.45050   0.45387
 Alpha virt. eigenvalues --    0.45965   0.46294   0.46952   0.47184   0.47294
 Alpha virt. eigenvalues --    0.47738   0.47960   0.48217   0.48412   0.48722
 Alpha virt. eigenvalues --    0.48882   0.49259   0.49454   0.49722   0.49898
 Alpha virt. eigenvalues --    0.50251   0.50400   0.51083   0.51938   0.52044
 Alpha virt. eigenvalues --    0.53068   0.53300   0.53798   0.54097   0.54506
 Alpha virt. eigenvalues --    0.54537   0.54882   0.55160   0.55374   0.55451
 Alpha virt. eigenvalues --    0.55833   0.56054   0.56496   0.56884   0.56931
 Alpha virt. eigenvalues --    0.57196   0.57584   0.57898   0.58752   0.58807
 Alpha virt. eigenvalues --    0.58963   0.59143   0.59521   0.59630   0.59735
 Alpha virt. eigenvalues --    0.60060   0.60406   0.60735   0.60954   0.61348
 Alpha virt. eigenvalues --    0.61651   0.62033   0.62438   0.62694   0.63145
 Alpha virt. eigenvalues --    0.63656   0.63955   0.64194   0.64931   0.65154
 Alpha virt. eigenvalues --    0.65362   0.66233   0.66632   0.67070   0.67285
 Alpha virt. eigenvalues --    0.67742   0.68088   0.68592   0.68843   0.69346
 Alpha virt. eigenvalues --    0.69533   0.69854   0.70010   0.70515   0.70823
 Alpha virt. eigenvalues --    0.71067   0.71455   0.72312   0.73367   0.73802
 Alpha virt. eigenvalues --    0.74192   0.74905   0.75208   0.75588   0.76037
 Alpha virt. eigenvalues --    0.76961   0.77049   0.77384   0.78061   0.78292
 Alpha virt. eigenvalues --    0.79509   0.80511   0.80820   0.81201   0.81555
 Alpha virt. eigenvalues --    0.81970   0.82414   0.82566   0.82921   0.83150
 Alpha virt. eigenvalues --    0.83311   0.83791   0.84082   0.84326   0.84488
 Alpha virt. eigenvalues --    0.85152   0.85753   0.85981   0.86179   0.86355
 Alpha virt. eigenvalues --    0.86615   0.86973   0.87386   0.87894   0.88223
 Alpha virt. eigenvalues --    0.88799   0.88963   0.89537   0.90033   0.90526
 Alpha virt. eigenvalues --    0.91104   0.91264   0.91640   0.92352   0.92729
 Alpha virt. eigenvalues --    0.93400   0.93674   0.93824   0.95148   0.95620
 Alpha virt. eigenvalues --    0.95826   0.96166   0.96398   0.97066   0.97589
 Alpha virt. eigenvalues --    0.98113   0.98538   0.98852   0.99546   0.99889
 Alpha virt. eigenvalues --    1.00514   1.01137   1.01747   1.02301   1.02639
 Alpha virt. eigenvalues --    1.02868   1.03262   1.03817   1.03974   1.04418
 Alpha virt. eigenvalues --    1.04667   1.05158   1.05971   1.06300   1.06626
 Alpha virt. eigenvalues --    1.07074   1.07300   1.07577   1.08017   1.08765
 Alpha virt. eigenvalues --    1.08881   1.09371   1.10103   1.10451   1.11265
 Alpha virt. eigenvalues --    1.12238   1.12353   1.13543   1.13790   1.14045
 Alpha virt. eigenvalues --    1.14321   1.14630   1.14702   1.15142   1.15404
 Alpha virt. eigenvalues --    1.16786   1.16958   1.17481   1.17999   1.18606
 Alpha virt. eigenvalues --    1.18966   1.19829   1.20229   1.20550   1.22496
 Alpha virt. eigenvalues --    1.22948   1.24293   1.24620   1.24841   1.25778
 Alpha virt. eigenvalues --    1.26204   1.27681   1.28922   1.29844   1.29935
 Alpha virt. eigenvalues --    1.30404   1.30657   1.31644   1.33149   1.33283
 Alpha virt. eigenvalues --    1.34611   1.35099   1.35538   1.36754   1.37541
 Alpha virt. eigenvalues --    1.38086   1.39894   1.40029   1.40069   1.40489
 Alpha virt. eigenvalues --    1.40898   1.41319   1.41609   1.42276   1.43110
 Alpha virt. eigenvalues --    1.44298   1.44651   1.44856   1.45015   1.45648
 Alpha virt. eigenvalues --    1.46075   1.46638   1.47788   1.47980   1.48643
 Alpha virt. eigenvalues --    1.49078   1.49644   1.49890   1.50403   1.50744
 Alpha virt. eigenvalues --    1.51396   1.51768   1.52683   1.53520   1.54297
 Alpha virt. eigenvalues --    1.54593   1.54963   1.55402   1.55719   1.55920
 Alpha virt. eigenvalues --    1.56550   1.56620   1.57132   1.57518   1.58042
 Alpha virt. eigenvalues --    1.58523   1.58804   1.58993   1.59487   1.60070
 Alpha virt. eigenvalues --    1.60145   1.60512   1.60898   1.61390   1.61698
 Alpha virt. eigenvalues --    1.62702   1.63040   1.63655   1.63896   1.64058
 Alpha virt. eigenvalues --    1.64345   1.65180   1.65554   1.65796   1.66366
 Alpha virt. eigenvalues --    1.66613   1.67461   1.67865   1.68939   1.69212
 Alpha virt. eigenvalues --    1.69494   1.69948   1.70194   1.70779   1.70976
 Alpha virt. eigenvalues --    1.71920   1.72302   1.72465   1.72977   1.73309
 Alpha virt. eigenvalues --    1.73546   1.74214   1.75098   1.75521   1.75738
 Alpha virt. eigenvalues --    1.75903   1.76936   1.77339   1.77802   1.77961
 Alpha virt. eigenvalues --    1.78430   1.79043   1.79579   1.80218   1.80644
 Alpha virt. eigenvalues --    1.81683   1.82437   1.84602   1.85308   1.85949
 Alpha virt. eigenvalues --    1.86713   1.86806   1.87987   1.88164   1.88669
 Alpha virt. eigenvalues --    1.88930   1.89843   1.90186   1.90880   1.91118
 Alpha virt. eigenvalues --    1.91872   1.92087   1.92901   1.93500   1.94043
 Alpha virt. eigenvalues --    1.94088   1.94296   1.95030   1.95884   1.96610
 Alpha virt. eigenvalues --    1.96786   1.97070   1.97247   1.97774   1.98249
 Alpha virt. eigenvalues --    1.98280   1.98813   1.99519   1.99925   2.00305
 Alpha virt. eigenvalues --    2.01453   2.01567   2.02306   2.02593   2.02706
 Alpha virt. eigenvalues --    2.03420   2.03674   2.04545   2.04695   2.04900
 Alpha virt. eigenvalues --    2.05045   2.05873   2.06270   2.06687   2.07242
 Alpha virt. eigenvalues --    2.07524   2.08049   2.08351   2.09162   2.09651
 Alpha virt. eigenvalues --    2.09842   2.10468   2.10576   2.11371   2.11934
 Alpha virt. eigenvalues --    2.12510   2.13414   2.15860   2.17392   2.18401
 Alpha virt. eigenvalues --    2.18924   2.19222   2.19484   2.19929   2.22044
 Alpha virt. eigenvalues --    2.22682   2.23825   2.24375   2.25434   2.26017
 Alpha virt. eigenvalues --    2.26908   2.27385   2.28365   2.29839   2.30368
 Alpha virt. eigenvalues --    2.31556   2.32411   2.33034   2.33547   2.34250
 Alpha virt. eigenvalues --    2.35004   2.35455   2.35634   2.36875   2.37197
 Alpha virt. eigenvalues --    2.37580   2.38161   2.38526   2.38774   2.39043
 Alpha virt. eigenvalues --    2.39472   2.40126   2.40490   2.40654   2.42343
 Alpha virt. eigenvalues --    2.43880   2.44473   2.45050   2.45228   2.47218
 Alpha virt. eigenvalues --    2.47303   2.47764   2.48040   2.48870   2.50721
 Alpha virt. eigenvalues --    2.51935   2.52507   2.52748   2.53495   2.54816
 Alpha virt. eigenvalues --    2.55595   2.56631   2.57149   2.57333   2.58127
 Alpha virt. eigenvalues --    2.58965   2.59129   2.59569   2.59763   2.60016
 Alpha virt. eigenvalues --    2.60632   2.61054   2.61107   2.61428   2.62636
 Alpha virt. eigenvalues --    2.62817   2.63345   2.63639   2.64461   2.65220
 Alpha virt. eigenvalues --    2.66159   2.66348   2.66615   2.66867   2.67110
 Alpha virt. eigenvalues --    2.67725   2.68081   2.68861   2.69179   2.70071
 Alpha virt. eigenvalues --    2.70547   2.71053   2.72781   2.72802   2.73013
 Alpha virt. eigenvalues --    2.73453   2.73948   2.74336   2.74816   2.74972
 Alpha virt. eigenvalues --    2.75220   2.75918   2.76343   2.76509   2.77774
 Alpha virt. eigenvalues --    2.78807   2.79185   2.79209   2.79888   2.80553
 Alpha virt. eigenvalues --    2.80686   2.81355   2.81981   2.83199   2.85855
 Alpha virt. eigenvalues --    2.86117   2.86196   2.86956   2.87427   2.88673
 Alpha virt. eigenvalues --    2.88927   2.89397   2.91811   2.92452   2.92838
 Alpha virt. eigenvalues --    2.92972   2.93109   2.94482   2.94753   2.95852
 Alpha virt. eigenvalues --    2.97013   2.99030   2.99319   2.99396   2.99834
 Alpha virt. eigenvalues --    3.00089   3.00639   3.01175   3.01871   3.02635
 Alpha virt. eigenvalues --    3.02897   3.03228   3.03517   3.04624   3.05220
 Alpha virt. eigenvalues --    3.05591   3.06573   3.07517   3.09782   3.10919
 Alpha virt. eigenvalues --    3.11748   3.11907   3.14554   3.18480   3.19572
 Alpha virt. eigenvalues --    3.19954   3.21490   3.22659   3.22916   3.25233
 Alpha virt. eigenvalues --    3.27058   3.28677   3.29671   3.30734   3.32403
 Alpha virt. eigenvalues --    3.32573   3.35136   3.35646   3.36257   3.36379
 Alpha virt. eigenvalues --    3.36514   3.40215   3.40977   3.42288   3.42848
 Alpha virt. eigenvalues --    3.43397   3.43801   3.44414   3.45866   3.45997
 Alpha virt. eigenvalues --    3.46069   3.48039   3.48857   3.50058   3.50522
 Alpha virt. eigenvalues --    3.51650   3.51809   3.52268   3.53749   3.54540
 Alpha virt. eigenvalues --    3.54655   3.54840   3.56472   3.58995   3.59403
 Alpha virt. eigenvalues --    3.60275   3.62268   3.64673   3.67183   3.67895
 Alpha virt. eigenvalues --    3.68675   3.69980   3.72341   3.73188   3.73265
 Alpha virt. eigenvalues --    3.75422   3.76196   3.76479   3.76836   3.79712
 Alpha virt. eigenvalues --    3.80789   3.82899   3.86075   3.90345   3.90723
 Alpha virt. eigenvalues --    3.92193   3.93404   3.93961   3.95109   3.95529
 Alpha virt. eigenvalues --    3.95823   3.98020   3.99178   4.02411   4.03590
 Alpha virt. eigenvalues --    4.05399   4.07631   4.08246   4.08465   4.09162
 Alpha virt. eigenvalues --    4.09295   4.10115   4.10552   4.11267   4.14145
 Alpha virt. eigenvalues --    4.14654   4.16086   4.16716   4.18752   4.20795
 Alpha virt. eigenvalues --    4.28421   4.40272   4.54438   4.55711   4.65913
 Alpha virt. eigenvalues --    4.77283   4.78832   4.79341   4.89284   4.89517
 Alpha virt. eigenvalues --    4.90856   4.91013   4.91560   4.92398   4.92499
 Alpha virt. eigenvalues --    5.07344   5.12983   5.19865   5.27735   5.28107
 Alpha virt. eigenvalues --    5.34592   5.59131   5.76326   5.76767   5.84173
 Alpha virt. eigenvalues --    7.67446   8.18036  17.12076  17.20599  17.22262
 Alpha virt. eigenvalues --   17.29299  17.70713  17.90873  23.40952  23.45090
 Alpha virt. eigenvalues --   23.46333  23.54274  23.70461  23.79945  23.80103
 Alpha virt. eigenvalues --   23.81957  23.97904  24.01527  24.01730  24.02178
 Alpha virt. eigenvalues --   24.02243  24.02468  24.02576  24.05622  24.09126
 Alpha virt. eigenvalues --   24.13595  24.20130  24.22530  24.22924  24.24239
 Alpha virt. eigenvalues --   24.26504  24.27671  24.28249  24.28408  24.28637
 Alpha virt. eigenvalues --   24.30817  24.37222  24.37664  24.37810  24.38392
 Alpha virt. eigenvalues --   24.40927  24.77735  35.57001  35.68224  35.72544
 Alpha virt. eigenvalues --   35.84519  49.86757  49.91481  49.91605  50.03792
 Alpha virt. eigenvalues --  188.77823 189.40062
          Condensed to atoms (all electrons):
 Mulliken charges:
               1
     1  C   -0.132661
     2  O   -0.356746
     3  C    0.184979
     4  C   -0.120309
     5  C   -0.076185
     6  C    0.112221
     7  N   -0.521481
     8  C    0.229249
     9  C   -0.128821
    10  C   -0.007509
    11  C   -0.048606
    12  C   -0.095511
    13  C   -0.127123
    14  H    0.116522
    15  H    0.093370
    16  C   -0.234922
    17  S    0.479718
    18  C   -0.243772
    19  C   -0.023203
    20  C   -0.049437
    21  H    0.082422
    22  H    0.110441
    23  C    0.065442
    24  C   -0.124923
    25  C   -0.027266
    26  C   -0.086712
    27  C    0.188659
    28  C    0.188772
    29  N   -0.511405
    30  S    0.489272
    31  N   -0.510757
    32  C    0.088550
    33  C   -0.138168
    34  C    0.021574
    35  N   -0.234797
    36  C    0.456155
    37  O   -0.319025
    38  O   -0.301165
    39  H    0.235231
    40  H    0.068536
    41  H    0.125567
    42  H    0.103683
    43  H    0.080099
    44  H    0.112581
    45  C    0.119232
    46  C   -0.084903
    47  C   -0.121374
    48  C    0.185289
    49  C   -0.071876
    50  C   -0.085017
    51  H    0.105541
    52  H    0.094710
    53  O   -0.357955
    54  C   -0.132068
    55  H    0.110031
    56  H    0.108350
    57  H    0.128572
    58  H    0.097014
    59  H    0.105953
    60  C   -0.093652
    61  C   -0.073711
    62  H    0.095936
    63  H    0.106862
    64  H    0.105810
    65  H    0.097196
    66  H    0.129036
    67  H    0.110326
    68  H    0.108158
 Sum of Mulliken charges =   0.00000
 Mulliken charges with hydrogens summed into heavy atoms:
               1
     1  C    0.214859
     2  O   -0.356746
     3  C    0.184979
     4  C   -0.023113
     5  C    0.029625
     6  C    0.112221
     7  N   -0.521481
     8  C    0.229249
     9  C   -0.016240
    10  C    0.072590
    11  C   -0.048606
    12  C   -0.002141
    13  C   -0.010601
    16  C   -0.234922
    17  S    0.479718
    18  C   -0.243772
    19  C    0.087238
    20  C    0.032985
    23  C    0.065442
    24  C   -0.021240
    25  C    0.098301
    26  C   -0.086712
    27  C    0.188659
    28  C    0.188772
    29  N   -0.511405
    30  S    0.489272
    31  N   -0.510757
    32  C    0.157086
    33  C   -0.138168
    34  C    0.021574
    35  N   -0.234797
    36  C    0.456155
    37  O   -0.319025
    38  O   -0.065934
    45  C    0.119232
    46  C    0.021050
    47  C   -0.024360
    48  C    0.185289
    49  C    0.022834
    50  C    0.020524
    53  O   -0.357955
    54  C    0.214885
    60  C    0.013210
    61  C    0.022225
 Electronic spatial extent (au):  <R**2>=          53575.1588
 Charge=              0.0000 electrons
 Dipole moment (field-independent basis, Debye):
    X=            -13.6223    Y=             -6.9856    Z=              1.1347  Tot=             15.3510
 Quadrupole moment (field-independent basis, Debye-Ang):
   XX=           -310.4310   YY=           -273.8924   ZZ=           -264.8753
   XY=            -74.9105   XZ=              3.1966   YZ=             -7.4833
 Traceless Quadrupole moment (field-independent basis, Debye-Ang):
   XX=            -27.3648   YY=              9.1738   ZZ=             18.1910
   XY=            -74.9105   XZ=              3.1966   YZ=             -7.4833
 Octapole moment (field-independent basis, Debye-Ang**2):
  XXX=          -1760.3427  YYY=           -101.1880  ZZZ=              1.0065  XYY=           -326.9426
  XXY=           -597.0304  XXZ=            112.1465  XZZ=             15.4068  YZZ=              1.3494
  YYZ=             13.4780  XYZ=             70.1614
 Hexadecapole moment (field-independent basis, Debye-Ang**3):
 XXXX=         -68497.8729 YYYY=         -10129.8180 ZZZZ=           -692.1434 XXXY=          -6306.3662
 XXXZ=           -123.7953 YYYX=          -1808.5569 YYYZ=           -169.3630 ZZZX=             10.0958
 ZZZY=             20.1419 XXYY=         -12603.5114 XXZZ=         -10297.8576 YYZZ=          -1841.1944
 XXYZ=           -447.7771 YYXZ=            228.4599 ZZXY=             38.6326
 N-N= 4.922983105125D+03 E-N=-1.600595427355D+04  KE= 2.625003846670D+03
 Calling FoFJK, ICntrl=      2127 FMM=T ISym2X=0 I1Cent= 0 IOpClX= 0 NMat=1 NMatS=1 NMatT=0.
 ***** Axes restored to original set *****
 -------------------------------------------------------------------
 Center     Atomic                   Forces (Hartrees/Bohr)
 Number     Number              X              Y              Z
 -------------------------------------------------------------------
      1        6           0.005074879   -0.008157609    0.005735036
      2        8          -0.001839018    0.007475594   -0.005640404
      3        6           0.041751057   -0.018191154    0.005095677
      4        6           0.015172509   -0.061614772    0.039475439
      5        6          -0.043808689   -0.033297198    0.038396369
      6        6          -0.022543167    0.006103915    0.004951260
      7        7          -0.002830095    0.014782583   -0.003316956
      8        6           0.007652234   -0.040306625    0.001691340
      9        6          -0.052422468   -0.036010566   -0.036929995
     10        6          -0.056227342    0.001020800   -0.033612538
     11        6           0.007714574   -0.037717674    0.002907687
     12        6           0.051077620    0.022416735    0.032516444
     13        6           0.063134928   -0.008144473    0.038895449
     14        1          -0.010629831    0.002046386   -0.006460916
     15        1          -0.010096275   -0.003783303   -0.005871296
     16        6          -0.112859281   -0.107111315   -0.060287352
     17       16           0.310657867   -0.031218066    0.153404485
     18        6          -0.105443108    0.142389363   -0.040406709
     19        6          -0.092825663    0.039256819   -0.046069457
     20        6          -0.082776423   -0.023794422   -0.041657988
     21        1           0.012759166    0.003477332    0.006802960
     22        1           0.015668199   -0.000569201    0.008868479
     23        6           0.039355141   -0.011042061    0.018435985
     24        6           0.035020907   -0.052401025    0.012824314
     25        6           0.061585221    0.004372038    0.022742425
     26        6           0.037563637   -0.006920751    0.015752384
     27        6          -0.024511056    0.036016890   -0.010697694
     28        6          -0.043349743   -0.001124823   -0.011549398
     29        7          -0.099021721    0.000721583   -0.046499814
     30       16           0.079264262   -0.041369872    0.046650043
     31        7          -0.059876397    0.079371078   -0.032067349
     32        6          -0.003147273    0.054898300   -0.001294737
     33        6          -0.088004956   -0.017726310   -0.026064669
     34        6           0.085072070   -0.061631359    0.025387153
     35        7          -0.004933037    0.000233821   -0.001015268
     36        6           0.042361765    0.092598945    0.012557664
     37        8           0.001995255    0.015468438    0.000033654
     38        8          -0.008616154   -0.008667862   -0.002577432
     39        1           0.003277483    0.006296951    0.000757396
     40        1           0.000437460   -0.011132121    0.000039296
     41        1          -0.010718740    0.004130991   -0.003943579
     42        1          -0.012036607    0.004773313   -0.004613310
     43        1           0.010548307    0.000703644    0.006213276
     44        1           0.009123493    0.005928371    0.006731839
     45        6           0.017827325    0.015468958    0.001047167
     46        6           0.056689323   -0.006310394   -0.037857010
     47        6           0.012530823   -0.057465773   -0.044120988
     48        6          -0.030210238   -0.032836662   -0.011304744
     49        6          -0.065183582    0.009393545    0.038842295
     50        6          -0.018075531    0.046086378    0.045385687
     51        1           0.002497927   -0.008845290   -0.007851449
     52        1           0.009503531   -0.002692756   -0.006086457
     53        8          -0.002072119    0.006328259    0.006546485
     54        6          -0.000885432   -0.008411333   -0.006658058
     55        1           0.002069176   -0.008229435    0.009956629
     56        1          -0.008131952    0.006808699   -0.007259734
     57        1           0.012164080    0.010747965    0.002123820
     58        1          -0.003258590    0.007849934    0.007474949
     59        1          -0.010009699    0.002691265    0.007071101
     60        6          -0.008542261    0.052852693   -0.041038448
     61        6           0.053035085    0.038414764   -0.038658023
     62        1          -0.007015816   -0.006735060    0.006142486
     63        1           0.001716025   -0.010017455    0.007008918
     64        1           0.007698965    0.006738195   -0.007105202
     65        1          -0.000453972    0.009070011   -0.006550815
     66        1          -0.015615314    0.004920302   -0.000641634
     67        1           0.000835561   -0.006876240   -0.011186564
     68        1           0.005135694    0.008498101    0.008430396
 -------------------------------------------------------------------
 Cartesian Forces:  Max     0.310657867 RMS     0.042036976

 GradGradGradGradGradGradGradGradGradGradGradGradGradGradGradGradGradGrad
 Berny optimization.
 FormGI is forming the generalized inverse of G from B-inverse, IUseBI=4.
 GSVD:  received Info=                   1 from GESDD.
 Internal  Forces:  Max     0.248495963 RMS     0.030750142
 Search for a local minimum.
 Step number   1 out of a maximum of  362
 All quantities printed in internal units (Hartrees-Bohrs-Radians)
 Mixed Optimization -- RFO/linear search
 Second derivative matrix not updated -- first step.
 ITU=  0
     Eigenvalues ---    0.01484   0.01490   0.01759   0.01789   0.01791
     Eigenvalues ---    0.01832   0.02015   0.02019   0.02022   0.02255
     Eigenvalues ---    0.02427   0.02446   0.02460   0.02461   0.02514
     Eigenvalues ---    0.02633   0.02647   0.02648   0.02651   0.02696
     Eigenvalues ---    0.02700   0.02712   0.02728   0.02737   0.02752
     Eigenvalues ---    0.02756   0.02760   0.02776   0.02784   0.02789
     Eigenvalues ---    0.02793   0.02794   0.02798   0.02801   0.02809
     Eigenvalues ---    0.02811   0.02811   0.02812   0.02815   0.02815
     Eigenvalues ---    0.02816   0.02821   0.02823   0.02824   0.02827
     Eigenvalues ---    0.02827   0.02827   0.02833   0.02834   0.02838
     Eigenvalues ---    0.02838   0.02842   0.02858   0.02875   0.02905
     Eigenvalues ---    0.02940   0.02955   0.03062   0.03234   0.04052
     Eigenvalues ---    0.04874   0.04874   0.10171   0.10174   0.10632
     Eigenvalues ---    0.10635   0.15977   0.15991   0.15996   0.15996
     Eigenvalues ---    0.15996   0.15997   0.15998   0.15998   0.15998
     Eigenvalues ---    0.15999   0.15999   0.16000   0.16000   0.16000
     Eigenvalues ---    0.16000   0.16000   0.16000   0.16000   0.16000
     Eigenvalues ---    0.16000   0.16000   0.16000   0.16000   0.16000
     Eigenvalues ---    0.21998   0.22000   0.22000   0.22000   0.22459
     Eigenvalues ---    0.22736   0.22932   0.22943   0.22943   0.23998
     Eigenvalues ---    0.23999   0.24000   0.24504   0.24661   0.24782
     Eigenvalues ---    0.24803   0.24957   0.24981   0.24992   0.24993
     Eigenvalues ---    0.24995   0.24996   0.24997   0.24998   0.24999
     Eigenvalues ---    0.24999   0.25000   0.25000   0.25000   0.25000
     Eigenvalues ---    0.25000   0.25000   0.25000   0.25000   0.25000
     Eigenvalues ---    0.29194   0.29521   0.31965   0.31968   0.31973
     Eigenvalues ---    0.31996   0.32036   0.32037   0.33195   0.33216
     Eigenvalues ---    0.33222   0.33222   0.33240   0.33286   0.33291
     Eigenvalues ---    0.33295   0.33297   0.33331   0.33401   0.33457
     Eigenvalues ---    0.33480   0.33488   0.33752   0.33873   0.34165
     Eigenvalues ---    0.43118   0.43186   0.46153   0.46467   0.46855
     Eigenvalues ---    0.46893   0.49167   0.49387   0.49422   0.49811
     Eigenvalues ---    0.49924   0.49974   0.50051   0.50180   0.50194
     Eigenvalues ---    0.50888   0.51384   0.53175   0.53420   0.53434
     Eigenvalues ---    0.53471   0.53619   0.54158   0.54415   0.54649
     Eigenvalues ---    0.55178   0.55388   0.55493   0.55548   0.55653
     Eigenvalues ---    0.55687   0.55770   0.55806   0.55972   0.56146
     Eigenvalues ---    0.56146   0.56282   0.56611   0.56729   0.56795
     Eigenvalues ---    0.57117   0.61867   0.71274   0.75822   0.80855
     Eigenvalues ---    0.83194   0.98008   1.28169
 RFO step:  Lambda=-3.45975588D-01 EMin= 1.48436728D-02
 Linear search not attempted -- first point.
 Maximum step size (   0.300) exceeded in Quadratic search.
    -- Step size scaled by   0.492
 Iteration  1 RMS(Cart)=  0.09221256 RMS(Int)=  0.00019789
 Iteration  2 RMS(Cart)=  0.00070282 RMS(Int)=  0.00007101
 Iteration  3 RMS(Cart)=  0.00000012 RMS(Int)=  0.00007101
 Variable       Old X    -DE/DX   Delta X   Delta X   Delta X     New X
                                 (Linear)    (Quad)   (Total)
    R1        2.67440   0.00134   0.00000   0.00085   0.00085   2.67525
    R2        2.10779  -0.01595   0.00000  -0.01179  -0.01179   2.09599
    R3        2.10907  -0.01217   0.00000  -0.00900  -0.00900   2.10007
    R4        2.10902  -0.01214   0.00000  -0.00898  -0.00898   2.10004
    R5        2.59942  -0.00779   0.00000  -0.00454  -0.00454   2.59488
    R6        2.54512   0.05527   0.00000   0.03011   0.03011   2.57523
    R7        2.54436   0.05332   0.00000   0.02895   0.02895   2.57330
    R8        2.53542   0.05298   0.00000   0.02860   0.02861   2.56403
    R9        2.08216  -0.01108   0.00000  -0.00802  -0.00802   2.07414
   R10        2.54472   0.05888   0.00000   0.03220   0.03220   2.57692
   R11        2.08663  -0.01241   0.00000  -0.00901  -0.00901   2.07762
   R12        2.63137   0.03247   0.00000   0.01963   0.01963   2.65100
   R13        2.54541   0.06032   0.00000   0.03294   0.03294   2.57836
   R14        2.63608   0.01575   0.00000   0.00957   0.00957   2.64565
[...]
 Alpha virt. eigenvalues --    0.07171   0.07413   0.08216   0.09251   0.09414
 Alpha virt. eigenvalues --    0.09639   0.09793   0.10018   0.10127   0.10248
 Alpha virt. eigenvalues --    0.10574   0.11134   0.11913   0.12161   0.12642
 Alpha virt. eigenvalues --    0.12923   0.13096   0.13298   0.13384   0.13912
 Alpha virt. eigenvalues --    0.14161   0.15004   0.15290   0.15606   0.15984
 Alpha virt. eigenvalues --    0.16396   0.16737   0.17826   0.18292   0.18478
 Alpha virt. eigenvalues --    0.19701   0.20133   0.20345   0.20478   0.20907
 Alpha virt. eigenvalues --    0.21873   0.22355   0.22681   0.22926   0.23414
 Alpha virt. eigenvalues --    0.23728   0.24804   0.25012   0.25414   0.26486
 Alpha virt. eigenvalues --    0.27207   0.27574   0.28169   0.28530   0.29186
 Alpha virt. eigenvalues --    0.29653   0.29770   0.29936   0.30374   0.30392
 Alpha virt. eigenvalues --    0.30493   0.30983   0.31078   0.31691   0.32142
 Alpha virt. eigenvalues --    0.32215   0.33314   0.33404   0.34092   0.35000
 Alpha virt. eigenvalues --    0.35218   0.35467   0.35631   0.35981   0.36194
 Alpha virt. eigenvalues --    0.36343   0.36834   0.37117   0.37294   0.37476
 Alpha virt. eigenvalues --    0.37849   0.38001   0.38166   0.38463   0.38523
 Alpha virt. eigenvalues --    0.39017   0.39126   0.39404   0.39621   0.39987
 Alpha virt. eigenvalues --    0.39991   0.40461   0.40520   0.40617   0.40879
 Alpha virt. eigenvalues --    0.41041   0.41159   0.41607   0.42412   0.42685
 Alpha virt. eigenvalues --    0.42768   0.43072   0.43198   0.43233   0.43913
 Alpha virt. eigenvalues --    0.44050   0.44311   0.44696   0.45353   0.45581
 Alpha virt. eigenvalues --    0.45989   0.46444   0.46702   0.47132   0.47306
 Alpha virt. eigenvalues --    0.47474   0.47749   0.48142   0.48508   0.48790
 Alpha virt. eigenvalues --    0.48981   0.49594   0.49967   0.50200   0.50575
 Alpha virt. eigenvalues --    0.51135   0.51201   0.51490   0.51707   0.52422
 Alpha virt. eigenvalues --    0.52777   0.53406   0.53563   0.53829   0.54074
 Alpha virt. eigenvalues --    0.54414   0.54846   0.55639   0.55775   0.55982
 Alpha virt. eigenvalues --    0.56185   0.56772   0.56925   0.57575   0.57661
 Alpha virt. eigenvalues --    0.57770   0.58408   0.58527   0.58622   0.58900
 Alpha virt. eigenvalues --    0.59193   0.59559   0.60169   0.60328   0.60650
 Alpha virt. eigenvalues --    0.60712   0.61070   0.61268   0.61463   0.61591
 Alpha virt. eigenvalues --    0.61904   0.62522   0.63097   0.63423   0.63614
 Alpha virt. eigenvalues --    0.63676   0.64168   0.64429   0.64485   0.65279
 Alpha virt. eigenvalues --    0.65611   0.65889   0.66110   0.66467   0.66767
 Alpha virt. eigenvalues --    0.66924   0.67729   0.68226   0.68437   0.68569
 Alpha virt. eigenvalues --    0.68874   0.69526   0.69875   0.70149   0.70437
 Alpha virt. eigenvalues --    0.71028   0.71923   0.72394   0.73212   0.73752
 Alpha virt. eigenvalues --    0.74399   0.75129   0.75763   0.76208   0.76755
 Alpha virt. eigenvalues --    0.77503   0.77699   0.77798   0.78200   0.78250
 Alpha virt. eigenvalues --    0.78504   0.78702   0.79039   0.79381   0.80059
 Alpha virt. eigenvalues --    0.80179   0.80848   0.81004   0.81398   0.81729
 Alpha virt. eigenvalues --    0.82459   0.82801   0.83184   0.83871   0.84075
 Alpha virt. eigenvalues --    0.84414   0.84691   0.85400   0.85700   0.86225
 Alpha virt. eigenvalues --    0.86273   0.87094   0.87175   0.87541   0.88131
 Alpha virt. eigenvalues --    0.88209   0.88550   0.89293   0.89542   0.90106
 Alpha virt. eigenvalues --    0.90255   0.90983   0.91552   0.92033   0.92596
 Alpha virt. eigenvalues --    0.93490   0.94075   0.94106   0.94614   0.94842
 Alpha virt. eigenvalues --    0.95150   0.95560   0.95751   0.96651   0.96976
 Alpha virt. eigenvalues --    0.97008   0.97464   0.97904   0.98918   0.99137
 Alpha virt. eigenvalues --    0.99436   1.00001   1.00707   1.01046   1.01501
 Alpha virt. eigenvalues --    1.01984   1.02175   1.02353   1.03028   1.03344
 Alpha virt. eigenvalues --    1.03621   1.04108   1.04432   1.04944   1.05910
 Alpha virt. eigenvalues --    1.06234   1.06498   1.06618   1.07026   1.07587
 Alpha virt. eigenvalues --    1.08078   1.08545   1.08866   1.08968   1.09868
 Alpha virt. eigenvalues --    1.10143   1.11023   1.11814   1.12214   1.12887
 Alpha virt. eigenvalues --    1.13146   1.14072   1.14244   1.15442   1.15754
 Alpha virt. eigenvalues --    1.16142   1.16349   1.17675   1.18296   1.19170
 Alpha virt. eigenvalues --    1.20567   1.21368   1.22072   1.23134   1.23935
 Alpha virt. eigenvalues --    1.24010   1.24560   1.25603   1.26347   1.27428
 Alpha virt. eigenvalues --    1.28223   1.28943   1.29131   1.30470   1.31561
 Alpha virt. eigenvalues --    1.32152   1.32724   1.34200   1.35214   1.35777
 Alpha virt. eigenvalues --    1.35933   1.36687   1.38400   1.38583   1.38771
 Alpha virt. eigenvalues --    1.39336   1.39767   1.41854   1.41990   1.42131
 Alpha virt. eigenvalues --    1.42191   1.42549   1.42833   1.43338   1.43962
 Alpha virt. eigenvalues --    1.44926   1.44979   1.45589   1.45760   1.46146
 Alpha virt. eigenvalues --    1.46509   1.46708   1.46984   1.47330   1.47816
 Alpha virt. eigenvalues --    1.48204   1.48321   1.49004   1.49494   1.50236
 Alpha virt. eigenvalues --    1.51100   1.51888   1.52173   1.52348   1.53137
 Alpha virt. eigenvalues --    1.53487   1.53584   1.54119   1.54857   1.55076
 Alpha virt. eigenvalues --    1.55643   1.55929   1.56347   1.56936   1.57171
 Alpha virt. eigenvalues --    1.57481   1.57897   1.57984   1.58276   1.58442
 Alpha virt. eigenvalues --    1.58867   1.59045   1.59297   1.59608   1.60031
 Alpha virt. eigenvalues --    1.60563   1.61181   1.61628   1.62498   1.63741
 Alpha virt. eigenvalues --    1.64503   1.65302   1.65503   1.65534   1.66431
 Alpha virt. eigenvalues --    1.66546   1.67262   1.67479   1.67918   1.68343
 Alpha virt. eigenvalues --    1.68631   1.68784   1.69005   1.70248   1.71248
 Alpha virt. eigenvalues --    1.71467   1.71923   1.72442   1.72547   1.73101
 Alpha virt. eigenvalues --    1.73406   1.73510   1.74583   1.75434   1.75714
 Alpha virt. eigenvalues --    1.76137   1.76256   1.76718   1.76902   1.77332
 Alpha virt. eigenvalues --    1.77469   1.78064   1.78893   1.80365   1.81104
 Alpha virt. eigenvalues --    1.81549   1.82014   1.83604   1.83923   1.84157
 Alpha virt. eigenvalues --    1.84337   1.85323   1.85696   1.86144   1.86815
 Alpha virt. eigenvalues --    1.87123   1.88641   1.88861   1.89028   1.89314
 Alpha virt. eigenvalues --    1.89625   1.89696   1.90758   1.90892   1.91607
 Alpha virt. eigenvalues --    1.91970   1.92337   1.92661   1.92841   1.93408
 Alpha virt. eigenvalues --    1.93883   1.94176   1.95259   1.95897   1.97104
 Alpha virt. eigenvalues --    1.97646   1.97678   1.98848   1.99187   1.99323
 Alpha virt. eigenvalues --    1.99597   2.00206   2.00346   2.00817   2.01054
 Alpha virt. eigenvalues --    2.01430   2.02550   2.02735   2.03408   2.04151
 Alpha virt. eigenvalues --    2.04751   2.05532   2.05997   2.06183   2.06450
 Alpha virt. eigenvalues --    2.07376   2.07614   2.07902   2.08088   2.09085
 Alpha virt. eigenvalues --    2.09923   2.10229   2.10559   2.11271   2.11476
 Alpha virt. eigenvalues --    2.12106   2.12709   2.14730   2.15066   2.16871
 Alpha virt. eigenvalues --    2.17656   2.18340   2.19141   2.19485   2.21142
 Alpha virt. eigenvalues --    2.21639   2.22164   2.23412   2.25746   2.26376
 Alpha virt. eigenvalues --    2.26612   2.26937   2.28879   2.29362   2.30418
 Alpha virt. eigenvalues --    2.30522   2.31114   2.31570   2.32394   2.32641
 Alpha virt. eigenvalues --    2.33410   2.33800   2.34369   2.34680   2.35952
 Alpha virt. eigenvalues --    2.36216   2.37252   2.38033   2.38335   2.39029
 Alpha virt. eigenvalues --    2.39276   2.39501   2.40087   2.42801   2.43250
 Alpha virt. eigenvalues --    2.43348   2.44193   2.45872   2.46882   2.47505
 Alpha virt. eigenvalues --    2.47898   2.48426   2.48990   2.50069   2.51309
 Alpha virt. eigenvalues --    2.51592   2.52023   2.53607   2.53807   2.54400
 Alpha virt. eigenvalues --    2.54707   2.54889   2.56807   2.57002   2.57356
 Alpha virt. eigenvalues --    2.57760   2.58802   2.59120   2.59499   2.60252
 Alpha virt. eigenvalues --    2.60440   2.60892   2.61051   2.61401   2.61503
 Alpha virt. eigenvalues --    2.61762   2.62074   2.62695   2.63649   2.64105
 Alpha virt. eigenvalues --    2.64559   2.65082   2.65752   2.66074   2.66729
 Alpha virt. eigenvalues --    2.66970   2.67312   2.68029   2.68271   2.68415
 Alpha virt. eigenvalues --    2.68821   2.69109   2.69436   2.69627   2.70279
 Alpha virt. eigenvalues --    2.70646   2.71033   2.71314   2.71551   2.72799
 Alpha virt. eigenvalues --    2.73819   2.74040   2.74805   2.75159   2.75819
 Alpha virt. eigenvalues --    2.76748   2.77062   2.79055   2.79233   2.79468
 Alpha virt. eigenvalues --    2.80558   2.81578   2.83003   2.83171   2.83658
 Alpha virt. eigenvalues --    2.83851   2.84891   2.85359   2.85689   2.86133
 Alpha virt. eigenvalues --    2.86977   2.87519   2.88263   2.88358   2.89990
 Alpha virt. eigenvalues --    2.90739   2.90876   2.91668   2.92066   2.92415
 Alpha virt. eigenvalues --    2.93077   2.93729   2.94697   2.95661   2.96939
 Alpha virt. eigenvalues --    2.97761   3.00011   3.00095   3.00200   3.01071
 Alpha virt. eigenvalues --    3.01258   3.01597   3.02905   3.02961   3.03052
 Alpha virt. eigenvalues --    3.05043   3.05879   3.06105   3.07567   3.08287
 Alpha virt. eigenvalues --    3.08494   3.10017   3.10831   3.11448   3.14388
 Alpha virt. eigenvalues --    3.15637   3.17029   3.17595   3.18358   3.19335
 Alpha virt. eigenvalues --    3.19518   3.20053   3.21165   3.22836   3.23034
 Alpha virt. eigenvalues --    3.25055   3.26749   3.29223   3.30634   3.31411
 Alpha virt. eigenvalues --    3.32176   3.32863   3.34363   3.34410   3.35035
 Alpha virt. eigenvalues --    3.35750   3.37031   3.37097   3.37585   3.38606
 Alpha virt. eigenvalues --    3.40517   3.42283   3.44025   3.44848   3.46493
 Alpha virt. eigenvalues --    3.47626   3.48085   3.48654   3.49812   3.51731
 Alpha virt. eigenvalues --    3.52729   3.54618   3.55171   3.55395   3.57500
 Alpha virt. eigenvalues --    3.58988   3.60214   3.60884   3.61051   3.67507
 Alpha virt. eigenvalues --    3.73007   3.73907   3.74014   3.74357   3.74599
 Alpha virt. eigenvalues --    3.76963   3.77480   3.80043   3.82030   3.85679
 Alpha virt. eigenvalues --    3.86707   3.88036   3.88858   3.91343   3.94046
 Alpha virt. eigenvalues --    3.95271   3.96267   3.97957   3.98509   4.03074
 Alpha virt. eigenvalues --    4.03629   4.04917   4.05160   4.08574   4.09125
 Alpha virt. eigenvalues --    4.09291   4.09868   4.10065   4.11000   4.12291
 Alpha virt. eigenvalues --    4.13267   4.15065   4.15805   4.16259   4.17258
 Alpha virt. eigenvalues --    4.18577   4.34553   4.46554   4.51916   4.60140
 Alpha virt. eigenvalues --    4.70151   4.72245   4.80221   4.82714   4.83039
 Alpha virt. eigenvalues --    4.83382   4.83452   4.88283   4.88379   4.91583
 Alpha virt. eigenvalues --    5.00206   5.03033   5.12700   5.26714   5.26828
 Alpha virt. eigenvalues --    5.27079   5.53951   5.75576   5.76129   5.78123
 Alpha virt. eigenvalues --    7.78285   7.79404  17.11596  17.19810  17.28020
 Alpha virt. eigenvalues --   17.31033  17.48625  17.50402  23.43075  23.47370
 Alpha virt. eigenvalues --   23.51343  23.53934  23.62799  23.70945  23.77442
 Alpha virt. eigenvalues --   23.81081  23.84705  23.84827  23.84927  23.88117
 Alpha virt. eigenvalues --   23.88639  23.89173  23.90284  23.91182  23.92288
 Alpha virt. eigenvalues --   23.92397  23.93662  24.00591  24.00871  24.02904
 Alpha virt. eigenvalues --   24.03484  24.03963  24.10109  24.10419  24.10900
 Alpha virt. eigenvalues --   24.11693  24.12823  24.13580  24.16665  24.16999
 Alpha virt. eigenvalues --   24.17306  24.42487  35.46449  35.59462  35.63486
 Alpha virt. eigenvalues --   35.83144  49.83739  49.90567  49.90663  50.01013
 Alpha virt. eigenvalues --  188.88760 188.91016
          Condensed to atoms (all electrons):
 Mulliken charges:
               1
     1  C   -0.133325
     2  O   -0.346577
     3  C    0.174107
     4  C   -0.131263
     5  C   -0.060939
     6  C    0.054100
     7  N   -0.494695
     8  C    0.204381
     9  C   -0.116691
    10  C   -0.041871
    11  C   -0.002573
    12  C   -0.094972
    13  C   -0.116867
    14  H    0.120274
    15  H    0.104537
    16  C   -0.266543
    17  S    0.323848
    18  C   -0.289055
    19  C    0.003062
    20  C   -0.038542
    21  H    0.099450
    22  H    0.127593
    23  C    0.115434
    24  C   -0.117130
    25  C   -0.038987
    26  C   -0.072546
    27  C    0.127547
    28  C    0.140522
    29  N   -0.501072
    30  S    0.564261
    31  N   -0.491623
    32  C    0.036979
    33  C   -0.174598
    34  C    0.066919
    35  N   -0.232154
    36  C    0.432225
    37  O   -0.291262
    38  O   -0.296039
    39  H    0.245869
    40  H    0.113367
    41  H    0.133626
    42  H    0.109272
    43  H    0.094073
    44  H    0.119062
    45  C    0.053521
    46  C   -0.060521
    47  C   -0.131481
    48  C    0.173882
    49  C   -0.085756
    50  C   -0.056089
    51  H    0.107032
    52  H    0.107215
    53  O   -0.346988
    54  C   -0.133332
    55  H    0.112247
    56  H    0.111589
    57  H    0.132164
    58  H    0.108264
    59  H    0.104650
    60  C   -0.056418
    61  C   -0.085173
    62  H    0.107931
    63  H    0.107135
    64  H    0.104285
    65  H    0.108213
    66  H    0.132549
    67  H    0.112753
    68  H    0.111145
 Sum of Mulliken charges =   0.00000
 Mulliken charges with hydrogens summed into heavy atoms:
               1
     1  C    0.223121
     2  O   -0.346577
     3  C    0.174107
     4  C   -0.023049
     5  C    0.043346
     6  C    0.054100
     7  N   -0.494695
     8  C    0.204381
     9  C    0.002371
    10  C    0.052202
    11  C   -0.002573
    12  C    0.009566
    13  C    0.003407
    16  C   -0.266543
    17  S    0.323848
    18  C   -0.289055
    19  C    0.130655
    20  C    0.060908
    23  C    0.115434
    24  C   -0.007858
    25  C    0.094639
    26  C   -0.072546
    27  C    0.127547
    28  C    0.140522
    29  N   -0.501072
    30  S    0.564261
    31  N   -0.491623
    32  C    0.150345
    33  C   -0.174598
    34  C    0.066919
    35  N   -0.232154
    36  C    0.432225
    37  O   -0.291262
    38  O   -0.050170
    45  C    0.053521
    46  C    0.044129
    47  C   -0.023217
    48  C    0.173882
    49  C    0.021458
    50  C    0.050943
    53  O   -0.346988
    54  C    0.222669
    60  C    0.050718
    61  C    0.022758
 Electronic spatial extent (au):  <R**2>=          58763.4350
 Charge=              0.0000 electrons
 Dipole moment (field-independent basis, Debye):
    X=            -14.2353    Y=             -5.6158    Z=              1.5887  Tot=             15.3852
 Quadrupole moment (field-independent basis, Debye-Ang):
   XX=           -299.3176   YY=           -266.6070   ZZ=           -266.0623
   XY=            -63.7117   XZ=             16.1928   YZ=             -5.1632
 Traceless Quadrupole moment (field-independent basis, Debye-Ang):
   XX=            -21.9886   YY=             10.7219   ZZ=             11.2667
   XY=            -63.7117   XZ=             16.1928   YZ=             -5.1632
 Octapole moment (field-independent basis, Debye-Ang**2):
  XXX=          -1951.0774  YYY=            -69.1425  ZZZ=              0.7883  XYY=           -351.5180
  XXY=           -563.6214  XXZ=            224.8056  XZZ=            -11.4203  YZZ=              6.0190
  YYZ=             -3.1086  XYZ=            111.9224
 Hexadecapole moment (field-independent basis, Debye-Ang**3):
 XXXX=         -76551.4708 YYYY=         -10163.7551 ZZZZ=           -752.6885 XXXY=          -5638.1559
 XXXZ=           1575.7976 YYYX=          -1691.4131 YYYZ=           -163.6536 ZZZX=             22.9770
 ZZZY=             26.5191 XXYY=         -13271.6991 XXZZ=         -11335.9559 YYZZ=          -1864.9502
 XXYZ=           -329.9518 YYXZ=            285.8376 ZZXY=            -13.8824
 N-N= 4.738910868581D+03 E-N=-1.563341583997D+04  KE= 2.618688597683D+03
 1\1\GINC-N014\FOpt\RB3LYP\6-311G(d,p)\C34H24N4O4S2\R2532\15-May-2021\0
 \\#N B3LYP/6-311G(d,p) OPT\\C34H24O4N4S2\\0,1\C,0.0075756694,-0.342715
 5482,0.2529033547\O,-0.3554937988,0.6596150628,-0.6866992453\C,-1.6480
 804933,1.0881760246,-0.7126856936\C,-2.6660899165,0.6079639712,0.11519
 34104\C,-3.9553128565,1.1277183656,0.0043694884\C,-4.2555883447,2.1125
 845196,-0.9355694841\N,-5.5878448563,2.6146087546,-1.0617899157\C,-5.8
 433929932,3.9904273377,-1.0417225223\C,-6.9765595007,4.5297331266,-1.6
 83138729\C,-7.227898007,5.8891239385,-1.6576184735\C,-6.3686984142,6.7
 878911977,-0.9977185944\C,-5.2367512239,6.2423990064,-0.3657134015\C,-
 4.9770718221,4.8837056864,-0.3818376429\H,-4.1062435141,4.5004438938,0
 .1335375473\H,-4.561840842,6.8924048829,0.1801679535\C,-6.6586893218,8
 .2143526964,-0.9745710621\S,-5.4038509051,9.3959618161,-0.6846128121\C
 ,-6.5380426411,10.7404790754,-0.8048240036\C,-7.8058760703,10.25230369
 79,-1.0765060419\C,-7.8712297497,8.8512582533,-1.1687026625\H,-8.79295
 31801,8.3124934528,-1.3411106813\H,-8.6570505781,10.9057619709,-1.1882
 473009\C,-6.0950520406,12.1011831752,-0.6257576133\C,-4.7817628621,12.
 4206525409,-0.2841913425\C,-4.3074407545,13.7297421856,-0.0993132862\C
 ,-5.1128675916,14.8550809061,-0.2384615067\C,-6.4828062214,14.58944036
 26,-0.5948268508\C,-6.9751077175,13.2373669015,-0.7871130507\N,-8.2667
 090412,13.1980346303,-1.1147118034\S,-8.8050600495,14.7432720129,-1.17
 19765224\N,-7.4154072329,15.522091984,-0.7840528386\C,-4.7217594267,16
 .2311278292,-0.0649995811\C,-3.5306830604,16.8035599513,0.270241001\C,
 -2.3555398848,16.0562135387,0.569714363\N,-1.4081519679,15.4323337842,
 0.7927010053\C,-3.3795739941,18.2872023118,0.4572043177\O,-2.515158023
 9,18.7701244323,1.1326342169\O,-4.2909240665,19.0770521693,-0.16907580
 72\H,-4.7793998027,18.5751623678,-0.8315681065\H,-5.5555770007,16.9128
 393053,-0.2062221318\H,-3.2666791222,13.8460041941,0.1681971772\H,-4.0
 695367595,11.6166617711,-0.1430997009\H,-8.0909492075,6.2678607759,-2.
 1924103083\H,-7.6497882991,3.8723890286,-2.2176037835\C,-6.6533736027,
 1.6729891689,-1.2048464128\C,-6.5897712427,0.6705444413,-2.1717927694\
 C,-7.6116601403,-0.2693957592,-2.3018393968\C,-8.7291147967,-0.2034192
 658,-1.4657330197\C,-8.7994029172,0.803628578,-0.4938889136\C,-7.77168
 24554,1.7217155775,-0.3594215806\H,-7.8303508237,2.4885371315,0.403896
 0299\H,-9.6664115311,0.8343849447,0.1546984392\O,-9.7872484795,-1.0603
 428736,-1.5104971443\C,-9.7778188408,-2.09837215,-2.4807236674\H,-9.75
 02921178,-1.695743241,-3.499415518\H,-8.9302009654,-2.777429222,-2.335
 0899034\H,-10.7065301852,-2.6477413248,-2.336680511\H,-7.5266057399,-1
 .0349291332,-3.0611788559\H,-5.7288875608,0.6177658687,-2.8275705384\C
 ,-3.23036341,2.5788968663,-1.7718058391\C,-1.9433659496,2.0818139215,-
 1.6556903241\H,-1.1460699721,2.4368584428,-2.2972241492\H,-3.450079205
 7,3.3375010912,-2.5137102038\H,-4.7387572418,0.7551177611,0.6535041275
 \H,-2.4707778165,-0.1578851669,0.8535916044\H,1.068911231,-0.526543505
 ,0.0955209661\H,-0.1517776069,-0.0043956946,1.2827877807\H,-0.54902514
 19,-1.2715527988,0.0848534649\\Version=ES64L-G09RevD.01\State=1-A\HF=-
 2626.7854503\RMSD=8.004e-09\RMSF=5.993e-06\Dipole=-2.254813,-5.4429324
 ,-1.3889966\Quadrupole=3.3217417,-10.2767579,6.9550162,-45.0586379,-0.
 2172179,-22.1596809\PG=C01 [X(C34H24N4O4S2)]\\@


 WHEN HAVING A MEETING OF THE MINDS,
 MAKE SURE YOU HAVE THE EQUIPMENT FOR IT.
 Job cpu time:       1 days  5 hours 51 minutes 19.2 seconds.
 File lengths (MBytes):  RWF=    553 Int=      0 D2E=      0 Chk=     60 Scr=      1
 Normal termination of Gaussian 09 at Sat May 15 17:07:06 2021.
