 Entering Gaussian System, Link 0=g16
 Input=ES.com
 Output=PBE1PBE.out
 Initial command:
 /usr/local/apps/gaussian/g16-c01-avx2//g16/l1.exe "/tmp/r2532.910715.maple/Gau-39774.inp" -scrdir="/tmp/r2532.910715.maple/"
 Entering Link 1 = /usr/local/apps/gaussian/g16-c01-avx2//g16/l1.exe PID=     39775.
  
 Copyright (c) 1988-2019, Gaussian, Inc.  All Rights Reserved.
  
 This is part of the Gaussian(R) 16 program.  It is based on
 the Gaussian(R) 09 system (copyright 2009, Gaussian, Inc.),
 the Gaussian(R) 03 system (copyright 2003, Gaussian, Inc.),
 the Gaussian(R) 98 system (copyright 1998, Gaussian, Inc.),
 the Gaussian(R) 94 system (copyright 1995, Gaussian, Inc.),
 the Gaussian 92(TM) system (copyright 1992, Gaussian, Inc.),
 the Gaussian 90(TM) system (copyright 1990, Gaussian, Inc.),
 the Gaussian 88(TM) system (copyright 1988, Gaussian, Inc.),
 the Gaussian 86(TM) system (copyright 1986, Carnegie Mellon
 University), and the Gaussian 82(TM) system (copyright 1983,
 Carnegie Mellon University). Gaussian is a federally registered
 trademark of Gaussian, Inc.
  
 This software contains proprietary and confidential information,
 including trade secrets, belonging to Gaussian, Inc.
  
 This software is provided under written license and may be
 used, copied, transmitted, or stored only in accord with that
 written license.
  
 The following legend is applicable only to US Government
 contracts under FAR:
  
                    RESTRICTED RIGHTS LEGEND
  
 Use, reproduction and disclosure by the US Government is
 subject to restrictions as set forth in subparagraphs (a)
 and (c) of the Commercial Computer Software - Restricted
 Rights clause in FAR 52.227-19.
  
 Gaussian, Inc.
 340 Quinnipiac St., Bldg. 40, Wallingford CT 06492
  
  
 ---------------------------------------------------------------
 Warning -- This program may not be used in any manner that
 competes with the business of Gaussian, Inc. or will provide
 assistance to any competitor of Gaussian, Inc.  The licensee
 of this program is prohibited from giving any competitor of
 Gaussian, Inc. access to this program.  By using this program,
 the user acknowledges that Gaussian, Inc. is engaged in the
 business of creating and licensing software in the field of
 computational chemistry and represents and warrants to the
 licensee that it is not a competitor of Gaussian, Inc. and that
 it will not use this program in any manner prohibited above.
 ---------------------------------------------------------------
  

 Cite this work as:
 Gaussian 16, Revision C.01,
 M. J. Frisch, G. W. Trucks, H. B. Schlegel, G. E. Scuseria, 
 M. A. Robb, J. R. Cheeseman, G. Scalmani, V. Barone, 
 G. A. Petersson, H. Nakatsuji, X. Li, M. Caricato, A. V. Marenich, 
 J. Bloino, B. G. Janesko, R. Gomperts, B. Mennucci, H. P. Hratchian, 
 J. V. Ortiz, A. F. Izmaylov, J. L. Sonnenberg, D. Williams-Young, 
 F. Ding, F. Lipparini, F. Egidi, J. Goings, B. Peng, A. Petrone, 
 T. Henderson, D. Ranasinghe, V. G. Zakrzewski, J. Gao, N. Rega, 
 G. Zheng, W. Liang, M. Hada, M. Ehara, K. Toyota, R. Fukuda, 
 J. Hasegawa, M. Ishida, T. Nakajima, Y. Honda, O. Kitao, H. Nakai, 
 T. Vreven, K. Throssell, J. A. Montgomery, Jr., J. E. Peralta, 
 F. Ogliaro, M. J. Bearpark, J. J. Heyd, E. N. Brothers, K. N. Kudin, 
 V. N. Staroverov, T. A. Keith, R. Kobayashi, J. Normand, 
 K. Raghavachari, A. P. Rendell, J. C. Burant, S. S. Iyengar, 
 J. Tomasi, M. Cossi, J. M. Millam, M. Klene, C. Adamo, R. Cammi, 
 J. W. Ochterski, R. L. Martin, K. Morokuma, O. Farkas, 
 J. B. Foresman, and D. J. Fox, Gaussian, Inc., Wallingford CT, 2019.
 
 ******************************************
 Gaussian 16:  ES64L-G16RevC.01  3-Jul-2019
                27-Jul-2021 
 ******************************************
 %mem=8gb
 -----------------------------------
 #N TD(NStates=10) B3lYP/6-311G(d,p)
 -----------------------------------
 1/38=1,172=1/1;
 2/12=2,17=6,18=5,40=1/2;
 3/5=4,6=6,7=101,11=9,25=1,30=1,74=-5/1,2,3,8;
 4//1;
 5/5=2,38=5/2;
 8/6=1,10=2,108=10/1;
 9/41=10,42=1,70=2/14;
 6/7=2,8=2,9=2,10=2/1;
 99/5=1,9=1/99;
 ---------
 C25H20ON4
 ---------
 Symbolic Z-matrix:
 Charge =  0 Multiplicity = 1
 6                    -4.63103   5.36114  -2.41197 
 6                     0.95222   5.7407   -1.47375 
 6                    -0.14643  -0.44537   0.14703 
 6                    -0.94709   0.69217  -0.06834 
 6                    -2.35902   0.42957  -0.01601 
 6                    -2.67918  -0.90898   0.26019 
 1                    -5.28866  -4.6171    1.15698 
 1                     0.86051   7.7998   -0.84788 
 6                    -2.78497   2.62956  -0.53128 
 6                    -1.35381   2.91407  -0.48195 
 6                     7.82472  -5.7761   -3.62397 
 6                     8.82059   3.04506   3.91574 
 6                    -3.95817  -1.57433   0.38948 
 6                    -5.17656  -0.89074   0.15151 
 1                    -7.29137  -0.958     0.07256 
 6                    -4.04353  -2.93828   0.75394 
 1                    -5.14123   0.14972  -0.13512 
 6                     1.29755  -0.5986    0.15035 
 6                     2.16246   0.50572   0.30689 
 6                     3.53679   0.35163   0.31772 
 6                     4.13247  -0.91835   0.17165 
 6                     3.27353  -2.02732   0.01813 
 6                     1.90153  -1.86533   0.00625 
 1                     1.73978   1.49481   0.40786 
 1                     4.16424   1.22527   0.43501 
 6                    -5.26243  -3.57082   0.8727 
 1                     3.69157  -3.01869  -0.09437 
 1                     1.2846   -2.74706  -0.12716 
 6                     0.40428   6.81886  -0.77922 
 6                    -0.73109   6.62844   0.00725 
 6                    -6.47915  -2.88962   0.63883 
 1                    -6.58801   6.14375  -1.97153 
 6                    -6.39493  -1.52744   0.27171 
 6                     6.37174  -0.11304   0.80588 
 6                     7.42482   0.47413   0.09152 
 6                     8.27176   1.38396   0.70383 
 6                     8.07876   1.74266   2.0451 
 6                     7.02709   1.16534   2.76374 
 6                     6.19113   0.23705   2.14427 
 1                     7.57915   0.20931  -0.94769 
 1                     9.08849   1.83969   0.157 
 6                    -7.69507  -3.64739   0.79041 
 1                     6.85705   1.41503   3.80207 
 1                     5.3876   -0.21657   2.7123 
 6                     6.14109  -2.19024  -0.47003 
 6                     7.05258  -2.9933    0.2289 
 6                     7.68093  -4.05723  -0.3984 
 6                     7.40267  -4.3563   -1.73934 
 6                     6.49101  -3.56265  -2.4428 
 6                     5.87783  -2.48285  -1.80861 
 1                     7.26951  -2.77601   1.26796 
 1                     8.38737  -4.68045   0.13664 
 1                     6.26167  -3.7615   -3.48071 
 1                     5.18468  -1.8635   -2.36542 
 6                    -9.01514  -3.30394   0.69587 
 1                    -2.71793   4.41289  -2.61112 
 1                    -5.14878   3.07404   0.66375 
 1                    -7.50632  -4.68324   1.0592 
 1                    -4.48742   5.9872   -3.28506 
 1                    -6.91396   4.68199   0.00889 
 6                    -1.32618   5.37251   0.08809 
 1                     0.79802   3.63936  -1.91123 
 1                     1.8356    5.8805   -2.08642 
 6                    -0.78384   4.28352  -0.60783 
 6                    -10.1218  -4.27579   0.95126 
 1                    -1.15485   7.45855   0.56074 
 1                    -2.2051    5.23718   0.70624 
 16                   -1.1866   -1.80189   0.44584 
 7                    -3.24773   1.42571  -0.27255 
 7                    -0.48364   1.94672  -0.28825 
 7                     5.51946  -1.07453   0.17552 
 6                     0.36861   4.48081  -1.38134 
 6                    -3.80555   3.6432   -0.91421 
 6                    -3.62976   4.4729   -2.02988 
 6                    -5.00493   3.72102  -0.19291 
 6                    -5.81324   5.44496  -1.67749 
 6                    -5.99673   4.62306  -0.56583 
 1                     8.44632  -6.64764  -3.81905 
 1                     6.77423  -6.03469  -3.78972 
 1                     8.11372  -4.96544  -4.30007 
 1                     9.61696   3.76386   4.0978 
 1                     7.85226   3.52257   4.09503 
 1                     8.93938   2.19247   4.59156 
 8                     8.06422  -5.42621  -2.26111 
 8                     8.95974   2.64913   2.55153 
 1                    -3.14326  -3.50806   0.95086 
 8                    -11.24029  -3.92595   1.23794 
 8                    -9.83441  -5.59508   0.86736 
 6                    -9.47804  -1.97966   0.45083 
 7                    -9.8703   -0.91128   0.24538 
 1                    -8.98977  -5.75154   0.42687 
 
 Stoichiometry    C48H34N4O4S
 Framework group  C1[X(C48H34N4O4S)]
 Deg. of freedom   267
 Full point group                 C1      NOp   1
 Largest Abelian subgroup         C1      NOp   1
 Largest concise Abelian subgroup C1      NOp   1
                         Standard orientation:                         
 ---------------------------------------------------------------------
 Center     Atomic      Atomic             Coordinates (Angstroms)
 Number     Number       Type             X           Y           Z
 ---------------------------------------------------------------------
      1          6           0       -4.631031    5.361136   -2.411965
      2          6           0        0.952221    5.740697   -1.473753
      3          6           0       -0.146433   -0.445370    0.147030
      4          6           0       -0.947089    0.692174   -0.068337
      5          6           0       -2.359020    0.429567   -0.016011
      6          6           0       -2.679179   -0.908980    0.260187
      7          1           0       -5.288656   -4.617098    1.156981
      8          1           0        0.860507    7.799804   -0.847875
      9          6           0       -2.784972    2.629555   -0.531279
     10          6           0       -1.353809    2.914069   -0.481952
     11          6           0        7.824722   -5.776095   -3.623969
     12          6           0        8.820585    3.045063    3.915736
     13          6           0       -3.958167   -1.574327    0.389483
     14          6           0       -5.176556   -0.890741    0.151509
     15          1           0       -7.291372   -0.958003    0.072563
     16          6           0       -4.043530   -2.938276    0.753936
     17          1           0       -5.141231    0.149716   -0.135119
     18          6           0        1.297547   -0.598599    0.150351
     19          6           0        2.162457    0.505724    0.306889
     20          6           0        3.536785    0.351629    0.317724
     21          6           0        4.132468   -0.918346    0.171651
     22          6           0        3.273532   -2.027315    0.018133
     23          6           0        1.901525   -1.865332    0.006245
     24          1           0        1.739779    1.494807    0.407860
     25          1           0        4.164243    1.225272    0.435011
     26          6           0       -5.262430   -3.570822    0.872697
     27          1           0        3.691571   -3.018690   -0.094374
     28          1           0        1.284605   -2.747058   -0.127164
     29          6           0        0.404280    6.818861   -0.779223
     30          6           0       -0.731085    6.628444    0.007254
     31          6           0       -6.479154   -2.889616    0.638832
     32          1           0       -6.588008    6.143747   -1.971527
     33          6           0       -6.394931   -1.527437    0.271705
     34          6           0        6.371743   -0.113043    0.805884
     35          6           0        7.424824    0.474129    0.091519
     36          6           0        8.271763    1.383955    0.703834
     37          6           0        8.078764    1.742664    2.045104
     38          6           0        7.027087    1.165339    2.763738
     39          6           0        6.191132    0.237049    2.144271
     40          1           0        7.579146    0.209308   -0.947690
     41          1           0        9.088486    1.839686    0.156997
     42          6           0       -7.695069   -3.647394    0.790412
     43          1           0        6.857048    1.415032    3.802069
     44          1           0        5.387599   -0.216572    2.712302
     45          6           0        6.141089   -2.190242   -0.470033
     46          6           0        7.052582   -2.993299    0.228903
     47          6           0        7.680930   -4.057226   -0.398404
     48          6           0        7.402670   -4.356297   -1.739342
     49          6           0        6.491011   -3.562645   -2.442798
     50          6           0        5.877831   -2.482852   -1.808608
     51          1           0        7.269510   -2.776009    1.267963
     52          1           0        8.387370   -4.680452    0.136639
     53          1           0        6.261671   -3.761504   -3.480711
     54          1           0        5.184685   -1.863495   -2.365415
     55          6           0       -9.015144   -3.303944    0.695865
     56          1           0       -2.717927    4.412890   -2.611118
     57          1           0       -5.148781    3.074038    0.663746
     58          1           0       -7.506319   -4.683242    1.059202
     59          1           0       -4.487420    5.987204   -3.285059
     60          1           0       -6.913955    4.681992    0.008889
     61          6           0       -1.326181    5.372509    0.088090
     62          1           0        0.798017    3.639362   -1.911234
     63          1           0        1.835597    5.880502   -2.086415
     64          6           0       -0.783844    4.283523   -0.607833
     65          6           0      -10.121801   -4.275787    0.951255
     66          1           0       -1.154853    7.458551    0.560742
     67          1           0       -2.205096    5.237183    0.706238
     68         16           0       -1.186602   -1.801887    0.445836
     69          7           0       -3.247730    1.425711   -0.272546
     70          7           0       -0.483638    1.946718   -0.288249
     71          7           0        5.519459   -1.074533    0.175518
     72          6           0        0.368612    4.480809   -1.381344
     73          6           0       -3.805550    3.643200   -0.914214
     74          6           0       -3.629759    4.472905   -2.029876
     75          6           0       -5.004933    3.721022   -0.192913
     76          6           0       -5.813238    5.444955   -1.677486
     77          6           0       -5.996733    4.623060   -0.565829
     78          1           0        8.446316   -6.647642   -3.819049
     79          1           0        6.774233   -6.034687   -3.789716
     80          1           0        8.113716   -4.965439   -4.300067
     81          1           0        9.616962    3.763855    4.097804
     82          1           0        7.852263    3.522568    4.095030
     83          1           0        8.939376    2.192469    4.591564
     84          8           0        8.064222   -5.426213   -2.261112
     85          8           0        8.959743    2.649126    2.551526
     86          1           0       -3.143257   -3.508059    0.950856
     87          8           0      -11.240290   -3.925952    1.237937
     88          8           0       -9.834414   -5.595084    0.867360
     89          6           0       -9.478038   -1.979660    0.450833
     90          7           0       -9.870299   -0.911276    0.245382
     91          1           0       -8.989770   -5.751540    0.426869
 ---------------------------------------------------------------------
 Rotational constants (GHZ):           0.0501157           0.0180140           0.0143061
 Standard basis: 6-311G(d,p) (5D, 7F)
 There are  1295 symmetry adapted cartesian basis functions of A   symmetry.
 There are  1238 symmetry adapted basis functions of A   symmetry.
  1238 basis functions,  2110 primitive gaussians,  1295 cartesian basis functions
   199 alpha electrons      199 beta electrons
       nuclear repulsion energy      6899.3183239166 Hartrees.
 NAtoms=   91 NActive=   91 NUniq=   91 SFac= 1.00D+00 NAtFMM=   60 NAOKFM=T Big=T
 Integral buffers will be    131072 words long.
 Regular integral format.
 Two-electron integral symmetry is turned on.
 One-electron integrals computed using PRISM.
 NBasis=  1238 RedAO= T EigKep=  1.19D-04  NBF=  1238
 NBsUse=  1238 1.00D-06 EigRej= -1.00D+00 NBFU=  1238
 ExpMin= 7.71D-02 ExpMax= 9.34D+04 ExpMxC= 3.17D+03 IAcc=3 IRadAn=         5 AccDes= 0.00D+00
 Harris functional with IExCor=  402 and IRadAn=       5 diagonalized for initial guess.
 HarFok:  IExCor=  402 AccDes= 0.00D+00 IRadAn=         5 IDoV= 1 UseB2=F ITyADJ=14
 ICtDFT=  3500011 ScaDFX=  1.000000  1.000000  1.000000  1.000000
