 Entering Gaussian System, Link 0=g16
 Input=ES.com
 Output=ES.out
 Initial command:
 /usr/local/apps/gaussian/g16-b01-avx2//g16/l1.exe "/tmp/r2532.896542.maple/Gau-34277.inp" -scrdir="/tmp/r2532.896542.maple/"
 Entering Link 1 = /usr/local/apps/gaussian/g16-b01-avx2//g16/l1.exe PID=     34279.
  
 Copyright (c) 1988-2017, Gaussian, Inc.  All Rights Reserved.
  
 This is part of the Gaussian(R) 16 program.  It is based on
 the Gaussian(R) 09 system (copyright 2009, Gaussian, Inc.),
 the Gaussian(R) 03 system (copyright 2003, Gaussian, Inc.),
 the Gaussian(R) 98 system (copyright 1998, Gaussian, Inc.),
 the Gaussian(R) 94 system (copyright 1995, Gaussian, Inc.),
 the Gaussian 92(TM) system (copyright 1992, Gaussian, Inc.),
 the Gaussian 90(TM) system (copyright 1990, Gaussian, Inc.),
 the Gaussian 88(TM) system (copyright 1988, Gaussian, Inc.),
 the Gaussian 86(TM) system (copyright 1986, Carnegie Mellon
 University), and the Gaussian 82(TM) system (copyright 1983,
 Carnegie Mellon University). Gaussian is a federally registered
 trademark of Gaussian, Inc.
  
 This software contains proprietary and confidential information,
 including trade secrets, belonging to Gaussian, Inc.
  
 This software is provided under written license and may be
 used, copied, transmitted, or stored only in accord with that
 written license.
  
 The following legend is applicable only to US Government
 contracts under FAR:
  
                    RESTRICTED RIGHTS LEGEND
  
 Use, reproduction and disclosure by the US Government is
 subject to restrictions as set forth in subparagraphs (a)
 and (c) of the Commercial Computer Software - Restricted
 Rights clause in FAR 52.227-19.
  
 Gaussian, Inc.
 340 Quinnipiac St., Bldg. 40, Wallingford CT 06492
  
  
 ---------------------------------------------------------------
 Warning -- This program may not be used in any manner that
 competes with the business of Gaussian, Inc. or will provide
 assistance to any competitor of Gaussian, Inc.  The licensee
 of this program is prohibited from giving any competitor of
 Gaussian, Inc. access to this program.  By using this program,
 the user acknowledges that Gaussian, Inc. is engaged in the
 business of creating and licensing software in the field of
 computational chemistry and represents and warrants to the
 licensee that it is not a competitor of Gaussian, Inc. and that
 it will not use this program in any manner prohibited above.
 ---------------------------------------------------------------
  

 Cite this work as:
 Gaussian 16, Revision B.01,
 M. J. Frisch, G. W. Trucks, H. B. Schlegel, G. E. Scuseria, 
 M. A. Robb, J. R. Cheeseman, G. Scalmani, V. Barone, 
 G. A. Petersson, H. Nakatsuji, X. Li, M. Caricato, A. V. Marenich, 
 J. Bloino, B. G. Janesko, R. Gomperts, B. Mennucci, H. P. Hratchian, 
 J. V. Ortiz, A. F. Izmaylov, J. L. Sonnenberg, D. Williams-Young, 
 F. Ding, F. Lipparini, F. Egidi, J. Goings, B. Peng, A. Petrone, 
 T. Henderson, D. Ranasinghe, V. G. Zakrzewski, J. Gao, N. Rega, 
 G. Zheng, W. Liang, M. Hada, M. Ehara, K. Toyota, R. Fukuda, 
 J. Hasegawa, M. Ishida, T. Nakajima, Y. Honda, O. Kitao, H. Nakai, 
 T. Vreven, K. Throssell, J. A. Montgomery, Jr., J. E. Peralta, 
 F. Ogliaro, M. J. Bearpark, J. J. Heyd, E. N. Brothers, K. N. Kudin, 
 V. N. Staroverov, T. A. Keith, R. Kobayashi, J. Normand, 
 K. Raghavachari, A. P. Rendell, J. C. Burant, S. S. Iyengar, 
 J. Tomasi, M. Cossi, J. M. Millam, M. Klene, C. Adamo, R. Cammi, 
 J. W. Ochterski, R. L. Martin, K. Morokuma, O. Farkas, 
 J. B. Foresman, and D. J. Fox, Gaussian, Inc., Wallingford CT, 2016.
 
 ******************************************
 Gaussian 16:  ES64L-G16RevB.01 20-Dec-2017
                19-Jul-2021 
 ******************************************
 %mem=8gb
 -------------------------------------
 #N TD(NStates=10) PBE1PBE/6-311G(d,p)
 -------------------------------------
 1/38=1,172=1/1;
 2/12=2,17=6,18=5,40=1/2;
 3/5=4,6=6,7=101,11=9,25=1,30=1,74=-13/1,2,3,8;
 4//1;
 5/5=2,38=5/2;
 8/6=1,10=2,108=10/1;
 9/41=10,42=1,70=2/14;
 6/7=2,8=2,9=2,10=2/1;
 99/5=1,9=1/99;
 ----
 Name
 ----
 Symbolic Z-matrix:
 Charge =  0 Multiplicity = 1
 6                     9.5725   -2.62523   0.62271 
 6                     8.2392   -1.99121   0.35022 
 6                     8.06603  -0.66294  -0.00605 
 6                     9.03782   0.32914  -0.17826 
 6                     9.86885   1.20097  -0.33079 
 6                     10.8329   2.22342  -0.50932 
 6                     12.20195   1.9677   -0.30226 
 6                     13.13853   2.97638  -0.47022 
 6                     12.74402   4.26584  -0.84965 
 6                     13.70758   5.39119  -1.06715 
 8                     14.93627   5.26223  -0.49615 
 8                     13.44419   6.37285  -1.70743 
 6                     11.38574   4.51592  -1.08171 
 6                     10.44207   3.51912  -0.90626 
 16                    6.36749  -0.28538  -0.24734 
 6                     5.89285  -1.9317    0.13665 
 6                     4.49124  -2.32139   0.1194 
 6                     4.04509  -3.65657   0.42664 
 7                     4.82644  -4.68532   0.75755 
 16                    3.85537  -5.97972   1.00854 
 7                     2.40487  -5.28468   0.70738 
 6                     2.6281   -4.0073    0.39765 
 6                     3.47795  -1.43111  -0.19556 
 6                     2.11015  -1.76821  -0.22197 
 6                     1.61851  -3.03237   0.06283 
 6                     0.20027  -3.34431   0.02462 
 16                   -0.97855  -2.12458  -0.43767 
 6                    -0.45156  -4.52433   0.30865 
 6                    -1.86619  -4.4749    0.17942 
 6                    -2.73928  -5.66067   0.49772 
 6                    -2.31771  -3.23073  -0.21512 
 6                    -3.68906  -2.75715  -0.45738 
 6                    -4.58901  -3.54093  -1.20935 
 6                    -5.86765  -3.088    -1.50146 
 6                    -4.10576  -1.51063   0.03162 
 6                    -5.40386  -1.04761  -0.20312 
 6                    -6.25396  -1.83822  -1.02025 
 7                    -7.43511  -1.1575   -1.24989 
 6                    -8.63413  -1.83318  -1.718 
 6                    -7.3604    0.08968  -0.63298 
 6                    -6.1563    0.15514   0.11854 
 6                    -5.98775   1.26729   0.98134 
 6                    -6.8834    2.36986   0.96418 
 6                    -6.49747   3.2426    2.05957 
 6                    -7.03365   4.38499   2.67285 
 6                    -6.40122   4.94079   3.77876 
 6                    -5.23577   4.37053   4.30475 
 6                    -4.70406   3.2118    3.75152 
 6                    -5.35133   2.65175   2.64938 
 7                    -5.06199   1.4593    1.99983 
 6                    -4.20769   0.45085   2.60595 
 6                    -7.92181   2.35898   0.00255 
 6                    -8.22028   1.20574  -0.77182 
 6                    -9.31296   1.57115  -1.66165 
 6                    -9.63289   2.91954  -1.35738 
 7                    -8.77944   3.38623  -0.36777 
 6                    -8.56798   4.81051  -0.16123 
 6                    -10.62897   3.62745  -2.02964 
 6                    -11.3144   2.98271  -3.05224 
 6                    -10.99146   1.66699  -3.40255 
 6                    -9.99978   0.96621  -2.72494 
 6                     7.0098   -2.68961   0.42596 
 1                     10.38157  -1.89943   0.53691 
 1                     9.768    -3.43863  -0.08288 
 1                     9.60165  -3.05317   1.62929 
 1                     12.51897   0.97214  -0.01807 
 1                     14.18771   2.73116  -0.3374 
 1                     14.94314   4.51706   0.11506 
 1                     11.09245   5.50842  -1.4 
 1                     9.39265   3.72473  -1.07693 
 1                     3.73492  -0.40658  -0.43918 
 1                     1.41376  -0.9798   -0.48209 
 1                     0.08212  -5.40866   0.62276 
 1                    -2.32667  -6.21982   1.34121 
 1                    -2.80337  -6.35344  -0.34856 
 1                    -3.75476  -5.35637   0.75449 
 1                    -4.25693  -4.48789  -1.61491 
 1                    -6.52702  -3.67829  -2.12619 
 1                    -3.39725  -0.91679   0.58884 
 1                    -8.66931  -1.90331  -2.80927 
 1                    -9.51444  -1.30497  -1.36147 
 1                    -8.65675  -2.84503  -1.30622 
 1                    -7.95181   4.8295    2.31887 
 1                    -6.82251   5.8243    4.24443 
 1                    -4.74991   4.82635   5.1597 
 1                    -3.81172   2.76169   4.16888 
 1                    -4.59877  -0.54091   2.39454 
 1                    -4.21029   0.58897   3.68816 
 1                    -3.17455   0.51586   2.25187 
 1                    -7.54978   4.98561   0.17489 
 1                    -9.26655   5.22959   0.56917 
 1                    -8.70652   5.33277  -1.11047 
 1                    -10.86652   4.65034  -1.76388 
 1                    -12.09627   3.50839  -3.58806 
 1                    -11.51669   1.18633  -4.21993 
 1                    -9.7604   -0.03377  -3.05074 
 1                     6.93536  -3.73388   0.68851 
 
 Stoichiometry    C52H35N5O2S3
 Framework group  C1[X(C52H35N5O2S3)]
 Deg. of freedom   285
 Full point group                 C1      NOp   1
 Largest Abelian subgroup         C1      NOp   1
 Largest concise Abelian subgroup C1      NOp   1
                         Standard orientation:                         
 ---------------------------------------------------------------------
 Center     Atomic      Atomic             Coordinates (Angstroms)
 Number     Number       Type             X           Y           Z
 ---------------------------------------------------------------------
      1          6           0        9.572500   -2.625230    0.622714
      2          6           0        8.239196   -1.991206    0.350223
      3          6           0        8.066035   -0.662939   -0.006048
      4          6           0        9.037824    0.329136   -0.178257
      5          6           0        9.868849    1.200972   -0.330786
      6          6           0       10.832902    2.223419   -0.509322
      7          6           0       12.201950    1.967704   -0.302263
      8          6           0       13.138535    2.976377   -0.470222
      9          6           0       12.744022    4.265838   -0.849649
     10          6           0       13.707576    5.391186   -1.067154
     11          8           0       14.936269    5.262229   -0.496154
     12          8           0       13.444192    6.372847   -1.707431
     13          6           0       11.385741    4.515923   -1.081711
     14          6           0       10.442067    3.519119   -0.906263
     15         16           0        6.367486   -0.285381   -0.247341
     16          6           0        5.892851   -1.931697    0.136652
     17          6           0        4.491240   -2.321388    0.119400
     18          6           0        4.045086   -3.656567    0.426643
     19          7           0        4.826441   -4.685318    0.757553
     20         16           0        3.855372   -5.979721    1.008542
     21          7           0        2.404868   -5.284678    0.707382
     22          6           0        2.628103   -4.007303    0.397647
     23          6           0        3.477946   -1.431110   -0.195564
     24          6           0        2.110145   -1.768213   -0.221970
     25          6           0        1.618507   -3.032369    0.062827
     26          6           0        0.200274   -3.344310    0.024624
     27         16           0       -0.978552   -2.124581   -0.437665
     28          6           0       -0.451555   -4.524327    0.308653
     29          6           0       -1.866186   -4.474899    0.179422
     30          6           0       -2.739275   -5.660670    0.497717
     31          6           0       -2.317711   -3.230734   -0.215118
     32          6           0       -3.689063   -2.757154   -0.457375
     33          6           0       -4.589015   -3.540927   -1.209351
     34          6           0       -5.867652   -3.088000   -1.501455
     35          6           0       -4.105764   -1.510631    0.031617
     36          6           0       -5.403856   -1.047611   -0.203123
     37          6           0       -6.253955   -1.838216   -1.020255
     38          7           0       -7.435109   -1.157498   -1.249887
     39          6           0       -8.634127   -1.833175   -1.718003
     40          6           0       -7.360400    0.089678   -0.632982
     41          6           0       -6.156296    0.155140    0.118542
     42          6           0       -5.987749    1.267289    0.981336
     43          6           0       -6.883402    2.369861    0.964180
     44          6           0       -6.497472    3.242595    2.059568
     45          6           0       -7.033648    4.384988    2.672851
     46          6           0       -6.401217    4.940793    3.778761
     47          6           0       -5.235774    4.370533    4.304751
     48          6           0       -4.704060    3.211801    3.751516
     49          6           0       -5.351325    2.651750    2.649384
     50          7           0       -5.061991    1.459295    1.999834
     51          6           0       -4.207686    0.450846    2.605945
     52          6           0       -7.921813    2.358980    0.002547
     53          6           0       -8.220281    1.205743   -0.771821
     54          6           0       -9.312962    1.571147   -1.661645
     55          6           0       -9.632895    2.919542   -1.357383
     56          7           0       -8.779443    3.386228   -0.367765
     57          6           0       -8.567981    4.810508   -0.161228
     58          6           0      -10.628968    3.627450   -2.029638
     59          6           0      -11.314396    2.982705   -3.052244
     60          6           0      -10.991458    1.666990   -3.402555
     61          6           0       -9.999776    0.966209   -2.724938
     62          6           0        7.009795   -2.689606    0.425960
     63          1           0       10.381571   -1.899431    0.536912
     64          1           0        9.767996   -3.438633   -0.082877
     65          1           0        9.601650   -3.053173    1.629290
     66          1           0       12.518966    0.972137   -0.018074
     67          1           0       14.187707    2.731158   -0.337395
     68          1           0       14.943136    4.517058    0.115055
     69          1           0       11.092449    5.508422   -1.400004
     70          1           0        9.392654    3.724733   -1.076925
     71          1           0        3.734918   -0.406575   -0.439178
     72          1           0        1.413764   -0.979800   -0.482094
     73          1           0        0.082118   -5.408663    0.622755
     74          1           0       -2.326673   -6.219817    1.341206
     75          1           0       -2.803366   -6.353436   -0.348561
     76          1           0       -3.754757   -5.356365    0.754493
     77          1           0       -4.256931   -4.487894   -1.614906
     78          1           0       -6.527019   -3.678286   -2.126191
     79          1           0       -3.397248   -0.916793    0.588840
     80          1           0       -8.669310   -1.903308   -2.809266
     81          1           0       -9.514439   -1.304965   -1.361471
     82          1           0       -8.656745   -2.845031   -1.306219
     83          1           0       -7.951805    4.829499    2.318867
     84          1           0       -6.822509    5.824297    4.244431
     85          1           0       -4.749911    4.826352    5.159705
     86          1           0       -3.811723    2.761687    4.168884
     87          1           0       -4.598775   -0.540911    2.394537
     88          1           0       -4.210287    0.588970    3.688162
     89          1           0       -3.174548    0.515860    2.251874
     90          1           0       -7.549779    4.985612    0.174886
     91          1           0       -9.266547    5.229593    0.569169
     92          1           0       -8.706522    5.332766   -1.110468
     93          1           0      -10.866518    4.650342   -1.763883
     94          1           0      -12.096272    3.508388   -3.588056
     95          1           0      -11.516694    1.186325   -4.219928
     96          1           0       -9.760401   -0.033771   -3.050741
     97          1           0        6.935361   -3.733875    0.688510
 ---------------------------------------------------------------------
 Rotational constants (GHZ):           0.0447281           0.0097132           0.0084800
 Standard basis: 6-311G(d,p) (5D, 7F)
 There are  1412 symmetry adapted cartesian basis functions of A   symmetry.
 There are  1350 symmetry adapted basis functions of A   symmetry.
  1350 basis functions,  2306 primitive gaussians,  1412 cartesian basis functions
   223 alpha electrons      223 beta electrons
       nuclear repulsion energy      7962.1390283546 Hartrees.
 NAtoms=   97 NActive=   97 NUniq=   97 SFac= 1.00D+00 NAtFMM=   60 NAOKFM=T Big=T
 Integral buffers will be    131072 words long.
 Regular integral format.
 Two-electron integral symmetry is turned on.
 One-electron integrals computed using PRISM.
 NBasis=  1350 RedAO= T EigKep=  1.60D-05  NBF=  1350
 NBsUse=  1350 1.00D-06 EigRej= -1.00D+00 NBFU=  1350
 ExpMin= 7.71D-02 ExpMax= 9.34D+04 ExpMxC= 3.17D+03 IAcc=3 IRadAn=         5 AccDes= 0.00D+00
 Harris functional with IExCor= 1009 and IRadAn=       5 diagonalized for initial guess.
 HarFok:  IExCor= 1009 AccDes= 0.00D+00 IRadAn=         5 IDoV= 1 UseB2=F ITyADJ=14
 ICtDFT=  3500011 ScaDFX=  1.000000  1.000000  1.000000  1.000000
 FoFCou: FMM=F IPFlag=           0 FMFlag=      100000 FMFlg1=        2001
         NFxFlg=           0 DoJE=T BraDBF=F KetDBF=T FulRan=T
         wScrn=  0.000000 ICntrl=       500 IOpCl=  0 I1Cent=   200000004 NGrid=           0
         NMat0=    1 NMatS0=      1 NMatT0=    0 NMatD0=    1 NMtDS0=    0 NMtDT0=    0
 Petite list used in FoFCou.
 Requested convergence on RMS density matrix=1.00D-08 within 128 cycles.
 Requested convergence on MAX density matrix=1.00D-06.
 Requested convergence on             energy=1.00D-06.
 No special actions if energy rises.
 Integral accuracy reduced to 1.0D-05 until final iterations.
 Initial convergence to 1.0D-05 achieved.  Increase integral accuracy.
 SCF Done:  E(RPBE1PBE) =  -3618.75671362     A.U. after   22 cycles
            NFock= 22  Conv=0.30D-08     -V/T= 2.0031
 DoSCS=F DFT=T ScalE2(SS,OS)=  1.000000  1.000000
 ExpMin= 7.71D-02 ExpMax= 9.34D+04 ExpMxC= 3.17D+03 IAcc=3 IRadAn=         5 AccDes= 0.00D+00
 HarFok:  IExCor=  205 AccDes= 0.00D+00 IRadAn=         5 IDoV=-2 UseB2=F ITyADJ=14
 ICtDFT= 12500011 ScaDFX=  1.000000  1.000000  1.000000  1.000000
 GSVD:  LWork=       -6068 too small for GESVD, short by       28490 words or       28490 for optimal perf.
 Range of M.O.s used for correlation:    75  1350
 NBasis=  1350 NAE=   223 NBE=   223 NFC=    74 NFV=     0
 NROrb=   1276 NOA=   149 NOB=   149 NVA=  1127 NVB=  1127

 **** Warning!!: The largest alpha MO coefficient is  0.23113264D+02


 **** Warning!!: The smallest alpha delta epsilon is  0.89343059D-01

 Orbital symmetries:
       Occupied  (A) (A) (A) (A) (A) (A) (A) (A) (A) (A) (A) (A)
                 (A) (A) (A) (A) (A) (A) (A) (A) (A) (A) (A) (A)
                 (A) (A) (A) (A) (A) (A) (A) (A) (A) (A) (A) (A)
                 (A) (A) (A) (A) (A) (A) (A) (A) (A) (A) (A) (A)
                 (A) (A) (A) (A) (A) (A) (A) (A) (A) (A) (A) (A)
                 (A) (A) (A) (A) (A) (A) (A) (A) (A) (A) (A) (A)
                 (A) (A) (A) (A) (A) (A) (A) (A) (A) (A) (A) (A)
                 (A) (A) (A) (A) (A) (A) (A) (A) (A) (A) (A) (A)
                 (A) (A) (A) (A) (A) (A) (A) (A) (A) (A) (A) (A)
                 (A) (A) (A) (A) (A) (A) (A) (A) (A) (A) (A) (A)
                 (A) (A) (A) (A) (A) (A) (A) (A) (A) (A) (A) (A)
                 (A) (A) (A) (A) (A) (A) (A) (A) (A) (A) (A) (A)
                 (A) (A) (A) (A) (A) (A) (A) (A) (A) (A) (A) (A)
                 (A) (A) (A) (A) (A) (A) (A) (A) (A) (A) (A) (A)
                 (A) (A) (A) (A) (A) (A) (A) (A) (A) (A) (A) (A)
                 (A) (A) (A) (A) (A) (A) (A) (A) (A) (A) (A) (A)
                 (A) (A) (A) (A) (A) (A) (A) (A) (A) (A) (A) (A)
                 (A) (A) (A) (A) (A) (A) (A) (A) (A) (A) (A) (A)
                 (A) (A) (A) (A) (A) (A) (A)
       Virtual   (A) (A) (A) (A) (A) (A) (A) (A) (A) (A) (A) (A)
                 (A) (A) (A) (A) (A) (A) (A) (A) (A) (A) (A) (A)
                 (A) (A) (A) (A) (A) (A) (A) (A) (A) (A) (A) (A)
                 (A) (A) (A) (A) (A) (A) (A) (A) (A) (A) (A) (A)
                 (A) (A) (A) (A) (A) (A) (A) (A) (A) (A) (A) (A)
                 (A) (A) (A) (A) (A) (A) (A) (A) (A) (A) (A) (A)
                 (A) (A) (A) (A) (A) (A) (A) (A) (A) (A) (A) (A)
                 (A) (A) (A) (A) (A) (A) (A) (A) (A) (A) (A) (A)
                 (A) (A) (A) (A) (A) (A) (A) (A) (A) (A) (A) (A)
                 (A) (A) (A) (A) (A) (A) (A) (A) (A) (A) (A) (A)
                 (A) (A) (A) (A) (A) (A) (A) (A) (A) (A) (A) (A)
                 (A) (A) (A) (A) (A) (A) (A) (A) (A) (A) (A) (A)
                 (A) (A) (A) (A) (A) (A) (A) (A) (A) (A) (A) (A)
                 (A) (A) (A) (A) (A) (A) (A) (A) (A) (A) (A) (A)
                 (A) (A) (A) (A) (A) (A) (A) (A) (A) (A) (A) (A)
                 (A) (A) (A) (A) (A) (A) (A) (A) (A) (A) (A) (A)
                 (A) (A) (A) (A) (A) (A) (A) (A) (A) (A) (A) (A)
                 (A) (A) (A) (A) (A) (A) (A) (A) (A) (A) (A) (A)
                 (A) (A) (A) (A) (A) (A) (A) (A) (A) (A) (A) (A)
                 (A) (A) (A) (A) (A) (A) (A) (A) (A) (A) (A) (A)
                 (A) (A) (A) (A) (A) (A) (A) (A) (A) (A) (A) (A)
                 (A) (A) (A) (A) (A) (A) (A) (A) (A) (A) (A) (A)
                 (A) (A) (A) (A) (A) (A) (A) (A) (A) (A) (A) (A)
                 (A) (A) (A) (A) (A) (A) (A) (A) (A) (A) (A) (A)
                 (A) (A) (A) (A) (A) (A) (A) (A) (A) (A) (A) (A)
                 (A) (A) (A) (A) (A) (A) (A) (A) (A) (A) (A) (A)
                 (A) (A) (A) (A) (A) (A) (A) (A) (A) (A) (A) (A)
                 (A) (A) (A) (A) (A) (A) (A) (A) (A) (A) (A) (A)
                 (A) (A) (A) (A) (A) (A) (A) (A) (A) (A) (A) (A)
                 (A) (A) (A) (A) (A) (A) (A) (A) (A) (A) (A) (A)
                 (A) (A) (A) (A) (A) (A) (A) (A) (A) (A) (A) (A)
                 (A) (A) (A) (A) (A) (A) (A) (A) (A) (A) (A) (A)
                 (A) (A) (A) (A) (A) (A) (A) (A) (A) (A) (A) (A)
                 (A) (A) (A) (A) (A) (A) (A) (A) (A) (A) (A) (A)
                 (A) (A) (A) (A) (A) (A) (A) (A) (A) (A) (A) (A)
                 (A) (A) (A) (A) (A) (A) (A) (A) (A) (A) (A) (A)
                 (A) (A) (A) (A) (A) (A) (A) (A) (A) (A) (A) (A)
                 (A) (A) (A) (A) (A) (A) (A) (A) (A) (A) (A) (A)
                 (A) (A) (A) (A) (A) (A) (A) (A) (A) (A) (A) (A)
                 (A) (A) (A) (A) (A) (A) (A) (A) (A) (A) (A) (A)
                 (A) (A) (A) (A) (A) (A) (A) (A) (A) (A) (A) (A)
                 (A) (A) (A) (A) (A) (A) (A) (A) (A) (A) (A) (A)
                 (A) (A) (A) (A) (A) (A) (A) (A) (A) (A) (A) (A)
                 (A) (A) (A) (A) (A) (A) (A) (A) (A) (A) (A) (A)
                 (A) (A) (A) (A) (A) (A) (A) (A) (A) (A) (A) (A)
                 (A) (A) (A) (A) (A) (A) (A) (A) (A) (A) (A) (A)
                 (A) (A) (A) (A) (A) (A) (A) (A) (A) (A) (A) (A)
                 (A) (A) (A) (A) (A) (A) (A) (A) (A) (A) (A) (A)
                 (A) (A) (A) (A) (A) (A) (A) (A) (A) (A) (A) (A)
                 (A) (A) (A) (A) (A) (A) (A) (A) (A) (A) (A) (A)
                 (A) (A) (A) (A) (A) (A) (A) (A) (A) (A) (A) (A)
                 (A) (A) (A) (A) (A) (A) (A) (A) (A) (A) (A) (A)
                 (A) (A) (A) (A) (A) (A) (A) (A) (A) (A) (A) (A)
                 (A) (A) (A) (A) (A) (A) (A) (A) (A) (A) (A) (A)
                 (A) (A) (A) (A) (A) (A) (A) (A) (A) (A) (A) (A)
                 (A) (A) (A) (A) (A) (A) (A) (A) (A) (A) (A) (A)
                 (A) (A) (A) (A) (A) (A) (A) (A) (A) (A) (A) (A)
                 (A) (A) (A) (A) (A) (A) (A) (A) (A) (A) (A) (A)
                 (A) (A) (A) (A) (A) (A) (A) (A) (A) (A) (A) (A)
                 (A) (A) (A) (A) (A) (A) (A) (A) (A) (A) (A) (A)
                 (A) (A) (A) (A) (A) (A) (A) (A) (A) (A) (A) (A)
                 (A) (A) (A) (A) (A) (A) (A) (A) (A) (A) (A) (A)
                 (A) (A) (A) (A) (A) (A) (A) (A) (A) (A) (A) (A)
                 (A) (A) (A) (A) (A) (A) (A) (A) (A) (A) (A) (A)
                 (A) (A) (A) (A) (A) (A) (A) (A) (A) (A) (A) (A)
                 (A) (A) (A) (A) (A) (A) (A) (A) (A) (A) (A) (A)
                 (A) (A) (A) (A) (A) (A) (A) (A) (A) (A) (A) (A)
                 (A) (A) (A) (A) (A) (A) (A) (A) (A) (A) (A) (A)
                 (A) (A) (A) (A) (A) (A) (A) (A) (A) (A) (A) (A)
                 (A) (A) (A) (A) (A) (A) (A) (A) (A) (A) (A) (A)
                 (A) (A) (A) (A) (A) (A) (A) (A) (A) (A) (A) (A)
                 (A) (A) (A) (A) (A) (A) (A) (A) (A) (A) (A) (A)
                 (A) (A) (A) (A) (A) (A) (A) (A) (A) (A) (A) (A)
                 (A) (A) (A) (A) (A) (A) (A) (A) (A) (A) (A) (A)
                 (A) (A) (A) (A) (A) (A) (A) (A) (A) (A) (A) (A)
                 (A) (A) (A) (A) (A) (A) (A) (A) (A) (A) (A) (A)
                 (A) (A) (A) (A) (A) (A) (A) (A) (A) (A) (A) (A)
                 (A) (A) (A) (A) (A) (A) (A) (A) (A) (A) (A) (A)
                 (A) (A) (A) (A) (A) (A) (A) (A) (A) (A) (A) (A)
                 (A) (A) (A) (A) (A) (A) (A) (A) (A) (A) (A) (A)
                 (A) (A) (A) (A) (A) (A) (A) (A) (A) (A) (A) (A)
                 (A) (A) (A) (A) (A) (A) (A) (A) (A) (A) (A) (A)
                 (A) (A) (A) (A) (A) (A) (A) (A) (A) (A) (A) (A)
                 (A) (A) (A) (A) (A) (A) (A) (A) (A) (A) (A) (A)
                 (A) (A) (A) (A) (A) (A) (A) (A) (A) (A) (A) (A)
                 (A) (A) (A) (A) (A) (A) (A) (A) (A) (A) (A) (A)
                 (A) (A) (A) (A) (A) (A) (A) (A) (A) (A) (A) (A)
                 (A) (A) (A) (A) (A) (A) (A) (A) (A) (A) (A) (A)
                 (A) (A) (A) (A) (A) (A) (A) (A) (A) (A) (A) (A)
                 (A) (A) (A) (A) (A) (A) (A) (A) (A) (A) (A) (A)
                 (A) (A) (A) (A) (A) (A) (A) (A) (A) (A) (A) (A)
                 (A) (A) (A) (A) (A) (A) (A) (A) (A) (A) (A) (A)
                 (A) (A) (A) (A) (A) (A) (A) (A) (A) (A) (A) (A)
                 (A) (A) (A) (A) (A) (A) (A) (A) (A) (A) (A)
    40 initial guesses have been made.
 Convergence on wavefunction:    0.001000000000000
 Iteration     1 Dimension    40 NMult     0 NNew     40
 CISAX will form    40 AO SS matrices at one time.
 New state      4 was old state      5
 New state      5 was old state      4
 New state      7 was old state      8
 New state      8 was old state      7
 New state      9 was old state     10
 New state     10 was old state     11
 Iteration     2 Dimension    60 NMult    40 NNew     20
 New state      9 was old state     10
 New state     10 was old state      9
 Iteration     3 Dimension    80 NMult    60 NNew     20
 Iteration     4 Dimension   100 NMult    80 NNew     20
 Iteration     5 Dimension   116 NMult   100 NNew     16
 Iteration     6 Dimension   126 NMult   116 NNew     10
 ***********************************************************************
 Excited states from <AA,BB:AA,BB> singles matrix:
 ***********************************************************************
 
 Ground to excited state transition densities written to RWF  633
 Ground to excited state transition electric dipole moments (Au):
       state          X           Y           Z        Dip. S.      Osc.
         1        -3.7714     -0.4605      0.0315     14.4368      0.7178
         2         0.2412      0.0099     -0.0762      0.0641      0.0034
         3        -2.1009     -0.9195      0.0735      5.2647      0.2996
         4        -0.7598      0.3364     -0.0489      0.6929      0.0488
         5         2.1243      1.5600     -0.2544      7.0111      0.5104
         6        -0.1664     -0.0882      0.0104      0.0356      0.0028
         7         1.1518      0.5351     -0.0793      1.6192      0.1275
         8        -1.3416     -0.9180      0.1949      2.6806      0.2127
         9         0.0300      0.0956     -0.0486      0.0124      0.0011
        10        -1.2046      1.0861      0.0202      2.6311      0.2267
 Ground to excited state transition velocity dipole moments (Au):
       state          X           Y           Z        Dip. S.      Osc.
         1         0.2830      0.0346     -0.0023      0.0813      0.7265
         2        -0.0198     -0.0002      0.0061      0.0004      0.0035
         3         0.1824      0.0786     -0.0059      0.0395      0.3083
         4         0.0766     -0.0373      0.0052      0.0073      0.0460
         5        -0.2255     -0.1677      0.0275      0.0797      0.4868
         6         0.0188      0.0100     -0.0012      0.0005      0.0026
         7        -0.1340     -0.0612      0.0089      0.0218      0.1228
         8         0.1534      0.1067     -0.0233      0.0354      0.1985
         9        -0.0030     -0.0086      0.0057      0.0001      0.0006
        10         0.1526     -0.1379     -0.0043      0.0423      0.2182
 Ground to excited state transition magnetic dipole moments (Au):
       state          X           Y           Z
         1        -0.0869      0.0340      2.6519
         2         0.0399      0.0834     -0.3220
         3         0.0128      0.1540      1.6716
         4        -0.0697     -0.0732      0.7382
         5        -0.0221     -0.4602     -3.2592
         6        -0.0007      0.0353      0.2458
         7         0.0150     -0.2064     -1.7167
         8        -0.0066      0.2857      2.5556
         9        -0.0531      0.1404      0.3229
        10        -0.2841     -0.4513      1.9428
 Ground to excited state transition velocity quadrupole moments (Au):
       state          XX          YY          ZZ          XY          XZ          YZ
         1         2.2863     -0.0864     -0.1175      0.5105     -0.2142     -0.1557
         2        -0.3401     -0.0044      0.0174     -0.1003     -0.0442      0.0225
         3         3.1363     -0.2121     -0.0119      0.5956     -0.1633     -0.0507
         4        -0.9584      0.2745     -0.0675     -0.2373     -0.0444     -0.1229
         5        -5.9776     -0.0383      0.0133     -2.9591      0.5546      0.0825
         6         0.3585      0.0206     -0.0022      0.1876     -0.0430     -0.0115
         7        -2.3648     -0.1654      0.0197     -1.1683      0.2456      0.0977
         8         3.9528      0.2154     -0.0490      2.5345     -0.4735     -0.0884
         9        -0.0707      0.0085     -0.0293      0.0642     -0.0384      0.0077
        10        -2.4518      0.1017     -0.2381     -0.0801      0.1644     -0.1492
 <0|del|b> * <b|rxdel|0> + <0|del|b> * <b|delr+rdel|0>
 Rotatory Strengths (R) in cgs (10**-40 erg-esu-cm/Gauss)
       state          XX          YY          ZZ    R(velocity)    E-M Angle
         1         6.7635   -348.3515     62.7617    -92.9421       92.23
         2       -11.4185    -11.3606     -1.5364     -8.1052      113.55
         3        47.9125    -54.9550     44.9844     12.6473       89.21
         4        12.2434    -32.5354     28.2880      2.6653       88.92
         5        -2.1548    -70.7756     25.0628    -15.9558       90.46
         6         0.8207     -0.9152      0.3861      0.0972       90.00
         7         5.9062    -59.7825     25.9369     -9.3132       91.05
         8      -111.3167    -44.7484    -22.2586    -59.4412       93.55
         9         1.8347      4.4280     -1.9132      1.4498       78.07
        10       210.4853   -204.5141     51.9045     19.2919       88.54
 1/2[<0|r|b>*<b|rxdel|0> + (<0|rxdel|b>*<b|r|0>)*]
 Rotatory Strengths (R) in cgs (10**-40 erg-esu-cm/Gauss)
       state          XX          YY          ZZ     R(length)
         1      -231.6510     11.0580    -59.0138    -93.2023
         2        -6.8022     -0.5846    -17.3422     -8.2430
         3        19.0349    100.1294    -86.8882     10.7587
         4       -37.4706     17.4108     25.5088      1.8163
         5        33.2354    507.6534   -586.4044    -15.1718
         6        -0.0868      2.2041     -1.8007      0.1055
         7       -12.2446     78.0819    -96.2945    -10.1524
         8        -6.2881    185.4648   -352.2387    -57.6873
         9         1.1284     -9.4905     11.0974      0.9118
        10      -242.0042    346.6051    -27.7329     25.6227
  1/2[<0|del|b>*<b|r|0> + (<0|r|b>*<b|del|0>)*] (Au)
       state          X           Y           Z        Dip. S.   Osc.(frdel)
         1        -1.0672     -0.0159     -0.0001      1.0832      0.7222
         2        -0.0048     -0.0000     -0.0005      0.0052      0.0035
         3        -0.3832     -0.0723     -0.0004      0.4559      0.3039
         4        -0.0582     -0.0125     -0.0003      0.0710      0.0473
         5        -0.4790     -0.2617     -0.0070      0.7477      0.4985
         6        -0.0031     -0.0009     -0.0000      0.0040      0.0027
         7        -0.1543     -0.0328     -0.0007      0.1877      0.1252
         8        -0.2058     -0.0979     -0.0045      0.3082      0.2055
         9        -0.0001     -0.0008     -0.0003      0.0012      0.0008
        10        -0.1838     -0.1497     -0.0001      0.3336      0.2224

 Excitation energies and oscillator strengths:
 
 Excited State   1:      Singlet-A      2.0295 eV  610.91 nm  f=0.7178  <S**2>=0.000
     221 -> 224        0.21143
     223 -> 224        0.67039
 This state for optimization and/or second-order correction.
 Total Energy, E(TD-HF/TD-DFT) =  -3618.68213132    
 Copying the excited state density for this state as the 1-particle RhoCI density.
 
 Excited State   2:      Singlet-A      2.1928 eV  565.42 nm  f=0.0034  <S**2>=0.000
     222 -> 224        0.70257
 
 Excited State   3:      Singlet-A      2.3226 eV  533.82 nm  f=0.2996  <S**2>=0.000
     221 -> 224        0.66434
     223 -> 224       -0.21497
 
 Excited State   4:      Singlet-A      2.8748 eV  431.28 nm  f=0.0488  <S**2>=0.000
     219 -> 224       -0.16961
     220 -> 224        0.60737
     221 -> 225       -0.17460
     223 -> 225       -0.24070
 
 Excited State   5:      Singlet-A      2.9716 eV  417.23 nm  f=0.5104  <S**2>=0.000
     220 -> 224        0.29423
     221 -> 225        0.22543
     223 -> 225        0.58501
 
 Excited State   6:      Singlet-A      3.1542 eV  393.08 nm  f=0.0028  <S**2>=0.000
     222 -> 225        0.70151
 
 Excited State   7:      Singlet-A      3.2153 eV  385.60 nm  f=0.1275  <S**2>=0.000
     219 -> 224        0.40969
     220 -> 224        0.16557
     221 -> 225        0.46661
     223 -> 225       -0.24670
 
 Excited State   8:      Singlet-A      3.2390 eV  382.79 nm  f=0.2127  <S**2>=0.000
     219 -> 224        0.51658
     221 -> 225       -0.39559
     223 -> 225        0.17290
     223 -> 226        0.10676
 
 Excited State   9:      Singlet-A      3.5033 eV  353.90 nm  f=0.0011  <S**2>=0.000
     215 -> 224        0.47141
     216 -> 224        0.31466
     217 -> 224        0.39416
 
 Excited State  10:      Singlet-A      3.5166 eV  352.56 nm  f=0.2267  <S**2>=0.000
     221 -> 227        0.11678
     222 -> 226        0.12763
     222 -> 228       -0.22195
     223 -> 226        0.47310
     223 -> 227       -0.38525
 SavETr:  write IOETrn=   770 NScale= 10 NData=  16 NLR=1 NState=   10 LETran=     190.

 **********************************************************************

            Population analysis using the SCF Density.

 **********************************************************************

 Orbital symmetries:
       Occupied  (A) (A) (A) (A) (A) (A) (A) (A) (A) (A) (A) (A)
                 (A) (A) (A) (A) (A) (A) (A) (A) (A) (A) (A) (A)
                 (A) (A) (A) (A) (A) (A) (A) (A) (A) (A) (A) (A)
                 (A) (A) (A) (A) (A) (A) (A) (A) (A) (A) (A) (A)
                 (A) (A) (A) (A) (A) (A) (A) (A) (A) (A) (A) (A)
                 (A) (A) (A) (A) (A) (A) (A) (A) (A) (A) (A) (A)
                 (A) (A) (A) (A) (A) (A) (A) (A) (A) (A) (A) (A)
                 (A) (A) (A) (A) (A) (A) (A) (A) (A) (A) (A) (A)
                 (A) (A) (A) (A) (A) (A) (A) (A) (A) (A) (A) (A)
                 (A) (A) (A) (A) (A) (A) (A) (A) (A) (A) (A) (A)
                 (A) (A) (A) (A) (A) (A) (A) (A) (A) (A) (A) (A)
                 (A) (A) (A) (A) (A) (A) (A) (A) (A) (A) (A) (A)
                 (A) (A) (A) (A) (A) (A) (A) (A) (A) (A) (A) (A)
                 (A) (A) (A) (A) (A) (A) (A) (A) (A) (A) (A) (A)
                 (A) (A) (A) (A) (A) (A) (A) (A) (A) (A) (A) (A)
                 (A) (A) (A) (A) (A) (A) (A) (A) (A) (A) (A) (A)
                 (A) (A) (A) (A) (A) (A) (A) (A) (A) (A) (A) (A)
                 (A) (A) (A) (A) (A) (A) (A) (A) (A) (A) (A) (A)
                 (A) (A) (A) (A) (A) (A) (A)
       Virtual   (A) (A) (A) (A) (A) (A) (A) (A) (A) (A) (A) (A)
                 (A) (A) (A) (A) (A) (A) (A) (A) (A) (A) (A) (A)
                 (A) (A) (A) (A) (A) (A) (A) (A) (A) (A) (A) (A)
                 (A) (A) (A) (A) (A) (A) (A) (A) (A) (A) (A) (A)
                 (A) (A) (A) (A) (A) (A) (A) (A) (A) (A) (A) (A)
                 (A) (A) (A) (A) (A) (A) (A) (A) (A) (A) (A) (A)
                 (A) (A) (A) (A) (A) (A) (A) (A) (A) (A) (A) (A)
                 (A) (A) (A) (A) (A) (A) (A) (A) (A) (A) (A) (A)
                 (A) (A) (A) (A) (A) (A) (A) (A) (A) (A) (A) (A)
                 (A) (A) (A) (A) (A) (A) (A) (A) (A) (A) (A) (A)
                 (A) (A) (A) (A) (A) (A) (A) (A) (A) (A) (A) (A)
                 (A) (A) (A) (A) (A) (A) (A) (A) (A) (A) (A) (A)
                 (A) (A) (A) (A) (A) (A) (A) (A) (A) (A) (A) (A)
                 (A) (A) (A) (A) (A) (A) (A) (A) (A) (A) (A) (A)
                 (A) (A) (A) (A) (A) (A) (A) (A) (A) (A) (A) (A)
                 (A) (A) (A) (A) (A) (A) (A) (A) (A) (A) (A) (A)
                 (A) (A) (A) (A) (A) (A) (A) (A) (A) (A) (A) (A)
                 (A) (A) (A) (A) (A) (A) (A) (A) (A) (A) (A) (A)
                 (A) (A) (A) (A) (A) (A) (A) (A) (A) (A) (A) (A)
                 (A) (A) (A) (A) (A) (A) (A) (A) (A) (A) (A) (A)
                 (A) (A) (A) (A) (A) (A) (A) (A) (A) (A) (A) (A)
                 (A) (A) (A) (A) (A) (A) (A) (A) (A) (A) (A) (A)
                 (A) (A) (A) (A) (A) (A) (A) (A) (A) (A) (A) (A)
                 (A) (A) (A) (A) (A) (A) (A) (A) (A) (A) (A) (A)
                 (A) (A) (A) (A) (A) (A) (A) (A) (A) (A) (A) (A)
                 (A) (A) (A) (A) (A) (A) (A) (A) (A) (A) (A) (A)
                 (A) (A) (A) (A) (A) (A) (A) (A) (A) (A) (A) (A)
                 (A) (A) (A) (A) (A) (A) (A) (A) (A) (A) (A) (A)
                 (A) (A) (A) (A) (A) (A) (A) (A) (A) (A) (A) (A)
                 (A) (A) (A) (A) (A) (A) (A) (A) (A) (A) (A) (A)
                 (A) (A) (A) (A) (A) (A) (A) (A) (A) (A) (A) (A)
                 (A) (A) (A) (A) (A) (A) (A) (A) (A) (A) (A) (A)
                 (A) (A) (A) (A) (A) (A) (A) (A) (A) (A) (A) (A)
                 (A) (A) (A) (A) (A) (A) (A) (A) (A) (A) (A) (A)
                 (A) (A) (A) (A) (A) (A) (A) (A) (A) (A) (A) (A)
                 (A) (A) (A) (A) (A) (A) (A) (A) (A) (A) (A) (A)
                 (A) (A) (A) (A) (A) (A) (A) (A) (A) (A) (A) (A)
                 (A) (A) (A) (A) (A) (A) (A) (A) (A) (A) (A) (A)
                 (A) (A) (A) (A) (A) (A) (A) (A) (A) (A) (A) (A)
                 (A) (A) (A) (A) (A) (A) (A) (A) (A) (A) (A) (A)
                 (A) (A) (A) (A) (A) (A) (A) (A) (A) (A) (A) (A)
                 (A) (A) (A) (A) (A) (A) (A) (A) (A) (A) (A) (A)
                 (A) (A) (A) (A) (A) (A) (A) (A) (A) (A) (A) (A)
                 (A) (A) (A) (A) (A) (A) (A) (A) (A) (A) (A) (A)
                 (A) (A) (A) (A) (A) (A) (A) (A) (A) (A) (A) (A)
                 (A) (A) (A) (A) (A) (A) (A) (A) (A) (A) (A) (A)
                 (A) (A) (A) (A) (A) (A) (A) (A) (A) (A) (A) (A)
                 (A) (A) (A) (A) (A) (A) (A) (A) (A) (A) (A) (A)
                 (A) (A) (A) (A) (A) (A) (A) (A) (A) (A) (A) (A)
                 (A) (A) (A) (A) (A) (A) (A) (A) (A) (A) (A) (A)
                 (A) (A) (A) (A) (A) (A) (A) (A) (A) (A) (A) (A)
                 (A) (A) (A) (A) (A) (A) (A) (A) (A) (A) (A) (A)
                 (A) (A) (A) (A) (A) (A) (A) (A) (A) (A) (A) (A)
                 (A) (A) (A) (A) (A) (A) (A) (A) (A) (A) (A) (A)
                 (A) (A) (A) (A) (A) (A) (A) (A) (A) (A) (A) (A)
                 (A) (A) (A) (A) (A) (A) (A) (A) (A) (A) (A) (A)
                 (A) (A) (A) (A) (A) (A) (A) (A) (A) (A) (A) (A)
                 (A) (A) (A) (A) (A) (A) (A) (A) (A) (A) (A) (A)
                 (A) (A) (A) (A) (A) (A) (A) (A) (A) (A) (A) (A)
                 (A) (A) (A) (A) (A) (A) (A) (A) (A) (A) (A) (A)
                 (A) (A) (A) (A) (A) (A) (A) (A) (A) (A) (A) (A)
                 (A) (A) (A) (A) (A) (A) (A) (A) (A) (A) (A) (A)
                 (A) (A) (A) (A) (A) (A) (A) (A) (A) (A) (A) (A)
                 (A) (A) (A) (A) (A) (A) (A) (A) (A) (A) (A) (A)
                 (A) (A) (A) (A) (A) (A) (A) (A) (A) (A) (A) (A)
                 (A) (A) (A) (A) (A) (A) (A) (A) (A) (A) (A) (A)
                 (A) (A) (A) (A) (A) (A) (A) (A) (A) (A) (A) (A)
                 (A) (A) (A) (A) (A) (A) (A) (A) (A) (A) (A) (A)
                 (A) (A) (A) (A) (A) (A) (A) (A) (A) (A) (A) (A)
                 (A) (A) (A) (A) (A) (A) (A) (A) (A) (A) (A) (A)
                 (A) (A) (A) (A) (A) (A) (A) (A) (A) (A) (A) (A)
                 (A) (A) (A) (A) (A) (A) (A) (A) (A) (A) (A) (A)
                 (A) (A) (A) (A) (A) (A) (A) (A) (A) (A) (A) (A)
                 (A) (A) (A) (A) (A) (A) (A) (A) (A) (A) (A) (A)
                 (A) (A) (A) (A) (A) (A) (A) (A) (A) (A) (A) (A)
                 (A) (A) (A) (A) (A) (A) (A) (A) (A) (A) (A) (A)
                 (A) (A) (A) (A) (A) (A) (A) (A) (A) (A) (A) (A)
                 (A) (A) (A) (A) (A) (A) (A) (A) (A) (A) (A) (A)
                 (A) (A) (A) (A) (A) (A) (A) (A) (A) (A) (A) (A)
                 (A) (A) (A) (A) (A) (A) (A) (A) (A) (A) (A) (A)
                 (A) (A) (A) (A) (A) (A) (A) (A) (A) (A) (A) (A)
                 (A) (A) (A) (A) (A) (A) (A) (A) (A) (A) (A) (A)
                 (A) (A) (A) (A) (A) (A) (A) (A) (A) (A) (A) (A)
                 (A) (A) (A) (A) (A) (A) (A) (A) (A) (A) (A) (A)
                 (A) (A) (A) (A) (A) (A) (A) (A) (A) (A) (A) (A)
                 (A) (A) (A) (A) (A) (A) (A) (A) (A) (A) (A) (A)
                 (A) (A) (A) (A) (A) (A) (A) (A) (A) (A) (A) (A)
                 (A) (A) (A) (A) (A) (A) (A) (A) (A) (A) (A) (A)
                 (A) (A) (A) (A) (A) (A) (A) (A) (A) (A) (A) (A)
                 (A) (A) (A) (A) (A) (A) (A) (A) (A) (A) (A) (A)
                 (A) (A) (A) (A) (A) (A) (A) (A) (A) (A) (A) (A)
                 (A) (A) (A) (A) (A) (A) (A) (A) (A) (A) (A) (A)
                 (A) (A) (A) (A) (A) (A) (A) (A) (A) (A) (A) (A)
                 (A) (A) (A) (A) (A) (A) (A) (A) (A) (A) (A)
 The electronic state is 1-A.
 Alpha  occ. eigenvalues --  -89.11787 -89.05682 -89.04783 -19.24569 -19.18368
 Alpha  occ. eigenvalues --  -14.43898 -14.43552 -14.43479 -14.42996 -14.42947
 Alpha  occ. eigenvalues --  -10.35573 -10.29582 -10.29522 -10.28249 -10.28012
 Alpha  occ. eigenvalues --  -10.27934 -10.27739 -10.27681 -10.27644 -10.27119
 Alpha  occ. eigenvalues --  -10.27092 -10.26976 -10.26869 -10.26863 -10.26683
 Alpha  occ. eigenvalues --  -10.26561 -10.26506 -10.26280 -10.26275 -10.25981
 Alpha  occ. eigenvalues --  -10.25884 -10.25480 -10.25358 -10.25316 -10.24996
 Alpha  occ. eigenvalues --  -10.24983 -10.24816 -10.24650 -10.24605 -10.24294
 Alpha  occ. eigenvalues --  -10.24150 -10.24031 -10.23776 -10.23773 -10.23631
 Alpha  occ. eigenvalues --  -10.23567 -10.23561 -10.23514 -10.23413 -10.23374
 Alpha  occ. eigenvalues --  -10.23371 -10.22876 -10.22867 -10.22832 -10.22827
 Alpha  occ. eigenvalues --  -10.22808 -10.22748 -10.22537 -10.22480 -10.22279
 Alpha  occ. eigenvalues --  -10.22071 -10.22005  -8.09827  -8.04057  -8.03174
 Alpha  occ. eigenvalues --   -6.03613  -6.03034  -6.02812  -5.97749  -5.97376
 Alpha  occ. eigenvalues --   -5.96994  -5.96855  -5.96487  -5.96132  -1.13395
 Alpha  occ. eigenvalues --   -1.06411  -1.05189  -1.03138  -1.02308  -1.02059
 Alpha  occ. eigenvalues --   -0.93820  -0.92975  -0.92052  -0.91539  -0.90031
 Alpha  occ. eigenvalues --   -0.88564  -0.88100  -0.87826  -0.87652  -0.84256
 Alpha  occ. eigenvalues --   -0.83491  -0.82941  -0.82806  -0.80644  -0.80266
 Alpha  occ. eigenvalues --   -0.79805  -0.79783  -0.79465  -0.78398  -0.77974
 Alpha  occ. eigenvalues --   -0.77485  -0.77409  -0.76435  -0.76081  -0.75538
 Alpha  occ. eigenvalues --   -0.74493  -0.72575  -0.71376  -0.71360  -0.71203
 Alpha  occ. eigenvalues --   -0.70358  -0.68865  -0.68145  -0.66147  -0.65816
 Alpha  occ. eigenvalues --   -0.65375  -0.65042  -0.64885  -0.64590  -0.63652
 Alpha  occ. eigenvalues --   -0.63088  -0.61618  -0.61232  -0.60551  -0.59455
 Alpha  occ. eigenvalues --   -0.59010  -0.58840  -0.58577  -0.57206  -0.56593
 Alpha  occ. eigenvalues --   -0.55775  -0.55546  -0.55078  -0.53960  -0.53876
 Alpha  occ. eigenvalues --   -0.53528  -0.53374  -0.51826  -0.51244  -0.50939
 Alpha  occ. eigenvalues --   -0.50732  -0.49982  -0.49875  -0.49142  -0.48894
 Alpha  occ. eigenvalues --   -0.48774  -0.48418  -0.48200  -0.48145  -0.47818
 Alpha  occ. eigenvalues --   -0.47378  -0.47047  -0.46703  -0.46321  -0.46173
 Alpha  occ. eigenvalues --   -0.46155  -0.45925  -0.45909  -0.45853  -0.45253
 Alpha  occ. eigenvalues --   -0.45128  -0.45097  -0.45002  -0.44728  -0.44052
 Alpha  occ. eigenvalues --   -0.43926  -0.43056  -0.43024  -0.42910  -0.42264
 Alpha  occ. eigenvalues --   -0.42080  -0.42003  -0.41688  -0.41618  -0.41097
 Alpha  occ. eigenvalues --   -0.41031  -0.40957  -0.40775  -0.40588  -0.40357
 Alpha  occ. eigenvalues --   -0.40227  -0.40188  -0.39705  -0.39491  -0.39344
 Alpha  occ. eigenvalues --   -0.39167  -0.38158  -0.38004  -0.37987  -0.37460
 Alpha  occ. eigenvalues --   -0.37409  -0.37203  -0.36888  -0.36305  -0.36002
 Alpha  occ. eigenvalues --   -0.35543  -0.35340  -0.35191  -0.34873  -0.34732
 Alpha  occ. eigenvalues --   -0.34593  -0.33960  -0.33462  -0.32347  -0.31244
 Alpha  occ. eigenvalues --   -0.30548  -0.30203  -0.29922  -0.29771  -0.29471
 Alpha  occ. eigenvalues --   -0.29044  -0.28978  -0.28215  -0.26870  -0.26264
 Alpha  occ. eigenvalues --   -0.26111  -0.25880  -0.25356  -0.24053  -0.22914
 Alpha  occ. eigenvalues --   -0.20793  -0.20024  -0.19683
 Alpha virt. eigenvalues --   -0.10749  -0.07605  -0.04617  -0.03484  -0.03193
 Alpha virt. eigenvalues --   -0.02763  -0.02557  -0.01570   0.00026   0.00038
 Alpha virt. eigenvalues --    0.00487   0.00530   0.01260   0.01360   0.02217
 Alpha virt. eigenvalues --    0.02440   0.02944   0.03265   0.04452   0.04654
 Alpha virt. eigenvalues --    0.04945   0.05109   0.05264   0.05391   0.05631
 Alpha virt. eigenvalues --    0.05723   0.05922   0.06213   0.06577   0.06998
 Alpha virt. eigenvalues --    0.07285   0.07633   0.07903   0.08380   0.08820
 Alpha virt. eigenvalues --    0.08836   0.09351   0.09979   0.10835   0.11011
 Alpha virt. eigenvalues --    0.11104   0.11275   0.11487   0.11637   0.12040
 Alpha virt. eigenvalues --    0.12135   0.12419   0.12567   0.12711   0.12951
 Alpha virt. eigenvalues --    0.13099   0.13308   0.13489   0.13582   0.13886
 Alpha virt. eigenvalues --    0.14227   0.14284   0.14387   0.15347   0.15591
 Alpha virt. eigenvalues --    0.15982   0.16483   0.16864   0.17188   0.17243
 Alpha virt. eigenvalues --    0.17280   0.17563   0.17766   0.17912   0.18213
 Alpha virt. eigenvalues --    0.18277   0.18717   0.18930   0.19394   0.19711
 Alpha virt. eigenvalues --    0.19989   0.20171   0.20362   0.20716   0.20851
 Alpha virt. eigenvalues --    0.20914   0.21629   0.22135   0.22450   0.22637
 Alpha virt. eigenvalues --    0.22949   0.23081   0.23339   0.24093   0.24244
 Alpha virt. eigenvalues --    0.24396   0.24633   0.24948   0.25133   0.25598
 Alpha virt. eigenvalues --    0.26146   0.26283   0.26636   0.26741   0.26932
 Alpha virt. eigenvalues --    0.27631   0.27821   0.28079   0.28510   0.28768
 Alpha virt. eigenvalues --    0.29042   0.29257   0.29775   0.29886   0.30106
 Alpha virt. eigenvalues --    0.30326   0.30979   0.31080   0.31610   0.31981
 Alpha virt. eigenvalues --    0.32313   0.32367   0.32859   0.33157   0.33434
 Alpha virt. eigenvalues --    0.33747   0.33928   0.34051   0.34853   0.35308
 Alpha virt. eigenvalues --    0.35496   0.35860   0.35914   0.36157   0.36306
 Alpha virt. eigenvalues --    0.36658   0.37059   0.37309   0.37471   0.37739
 Alpha virt. eigenvalues --    0.37825   0.38044   0.38247   0.38496   0.38810
 Alpha virt. eigenvalues --    0.38887   0.39040   0.39306   0.39445   0.39628
 Alpha virt. eigenvalues --    0.39686   0.40020   0.40423   0.40458   0.40704
 Alpha virt. eigenvalues --    0.40983   0.41076   0.41341   0.41516   0.41584
 Alpha virt. eigenvalues --    0.41794   0.41901   0.42118   0.42535   0.42712
 Alpha virt. eigenvalues --    0.42787   0.43022   0.43108   0.43333   0.43534
 Alpha virt. eigenvalues --    0.43671   0.43941   0.44043   0.44216   0.44306
 Alpha virt. eigenvalues --    0.44490   0.44660   0.44765   0.44849   0.44945
 Alpha virt. eigenvalues --    0.45344   0.45499   0.45659   0.45886   0.46124
 Alpha virt. eigenvalues --    0.46215   0.46389   0.46591   0.46861   0.46909
 Alpha virt. eigenvalues --    0.47326   0.47561   0.47616   0.47805   0.47918
 Alpha virt. eigenvalues --    0.48473   0.48617   0.49023   0.49195   0.49297
 Alpha virt. eigenvalues --    0.49446   0.49479   0.49780   0.50158   0.50308
 Alpha virt. eigenvalues --    0.50477   0.50800   0.51141   0.51541   0.51942
 Alpha virt. eigenvalues --    0.52250   0.52337   0.52391   0.52745   0.53034
 Alpha virt. eigenvalues --    0.53379   0.53819   0.53957   0.54288   0.54590
 Alpha virt. eigenvalues --    0.54689   0.54849   0.55079   0.55113   0.55564
 Alpha virt. eigenvalues --    0.55719   0.55880   0.56001   0.56487   0.56558
 Alpha virt. eigenvalues --    0.56802   0.56984   0.57225   0.57429   0.57851
 Alpha virt. eigenvalues --    0.58096   0.58324   0.58393   0.58482   0.58910
 Alpha virt. eigenvalues --    0.59213   0.59454   0.59573   0.59907   0.60206
 Alpha virt. eigenvalues --    0.60394   0.60531   0.60700   0.60814   0.61110
 Alpha virt. eigenvalues --    0.61470   0.61608   0.61916   0.62036   0.62239
 Alpha virt. eigenvalues --    0.62269   0.62624   0.62729   0.62917   0.63032
 Alpha virt. eigenvalues --    0.63301   0.63539   0.63839   0.64049   0.64078
 Alpha virt. eigenvalues --    0.64207   0.64647   0.64989   0.65470   0.65683
 Alpha virt. eigenvalues --    0.65804   0.66132   0.66246   0.66317   0.66466
 Alpha virt. eigenvalues --    0.66807   0.67040   0.67320   0.67587   0.67760
 Alpha virt. eigenvalues --    0.67909   0.68291   0.68672   0.68878   0.69222
 Alpha virt. eigenvalues --    0.69322   0.69984   0.70123   0.70357   0.70693
 Alpha virt. eigenvalues --    0.71069   0.71154   0.71583   0.71699   0.72241
 Alpha virt. eigenvalues --    0.72788   0.73029   0.73267   0.73759   0.74217
 Alpha virt. eigenvalues --    0.74594   0.74990   0.75142   0.75497   0.75717
 Alpha virt. eigenvalues --    0.75884   0.75994   0.76252   0.76814   0.77128
 Alpha virt. eigenvalues --    0.77361   0.77645   0.77817   0.78009   0.78118
 Alpha virt. eigenvalues --    0.78637   0.79087   0.79364   0.79553   0.79711
 Alpha virt. eigenvalues --    0.80006   0.80252   0.80398   0.80560   0.80867
 Alpha virt. eigenvalues --    0.81022   0.81330   0.81519   0.82322   0.82498
 Alpha virt. eigenvalues --    0.82610   0.82938   0.83041   0.83339   0.83800
 Alpha virt. eigenvalues --    0.83928   0.84181   0.84954   0.85118   0.85267
 Alpha virt. eigenvalues --    0.85832   0.85982   0.86118   0.86759   0.86889
 Alpha virt. eigenvalues --    0.87186   0.87292   0.87647   0.88148   0.88267
 Alpha virt. eigenvalues --    0.88840   0.88994   0.89221   0.89536   0.90109
 Alpha virt. eigenvalues --    0.90361   0.90425   0.90714   0.91288   0.91351
 Alpha virt. eigenvalues --    0.91420   0.91817   0.92451   0.92511   0.93018
 Alpha virt. eigenvalues --    0.93337   0.94062   0.94367   0.94516   0.94599
 Alpha virt. eigenvalues --    0.95370   0.95735   0.96009   0.96261   0.96820
 Alpha virt. eigenvalues --    0.97048   0.97391   0.97477   0.97781   0.98009
 Alpha virt. eigenvalues --    0.98145   0.98547   0.98598   0.98966   0.99897
 Alpha virt. eigenvalues --    0.99900   1.00125   1.01048   1.01329   1.01499
 Alpha virt. eigenvalues --    1.01690   1.02077   1.02125   1.02724   1.03008
 Alpha virt. eigenvalues --    1.03448   1.03784   1.03854   1.04082   1.04588
 Alpha virt. eigenvalues --    1.04844   1.04930   1.05166   1.05398   1.05531
 Alpha virt. eigenvalues --    1.06118   1.06179   1.06566   1.06790   1.06899
 Alpha virt. eigenvalues --    1.07345   1.07460   1.07961   1.08102   1.08344
 Alpha virt. eigenvalues --    1.08751   1.08781   1.09458   1.09673   1.09791
 Alpha virt. eigenvalues --    1.10080   1.10483   1.11146   1.11417   1.11901
 Alpha virt. eigenvalues --    1.12445   1.12921   1.13702   1.14093   1.14427
 Alpha virt. eigenvalues --    1.14662   1.15034   1.15178   1.15409   1.16044
 Alpha virt. eigenvalues --    1.16308   1.16741   1.16786   1.17087   1.17497
 Alpha virt. eigenvalues --    1.19038   1.19220   1.19909   1.20620   1.21048
 Alpha virt. eigenvalues --    1.21138   1.21415   1.22165   1.22896   1.24394
 Alpha virt. eigenvalues --    1.24610   1.24675   1.25240   1.25325   1.26293
 Alpha virt. eigenvalues --    1.27016   1.27362   1.28099   1.28603   1.28790
 Alpha virt. eigenvalues --    1.29229   1.29587   1.30951   1.31214   1.31283
 Alpha virt. eigenvalues --    1.31853   1.32241   1.32933   1.33664   1.34600
 Alpha virt. eigenvalues --    1.35081   1.35747   1.36306   1.36540   1.36890
 Alpha virt. eigenvalues --    1.37176   1.37362   1.37561   1.38329   1.38366
 Alpha virt. eigenvalues --    1.38976   1.39002   1.39590   1.39644   1.39923
 Alpha virt. eigenvalues --    1.40481   1.40653   1.41294   1.41429   1.41805
 Alpha virt. eigenvalues --    1.42496   1.42591   1.42889   1.43579   1.43792
 Alpha virt. eigenvalues --    1.44116   1.44157   1.44452   1.44592   1.45596
 Alpha virt. eigenvalues --    1.45696   1.46091   1.46289   1.46809   1.47366
 Alpha virt. eigenvalues --    1.47669   1.47750   1.48079   1.48230   1.48616
 Alpha virt. eigenvalues --    1.48847   1.49311   1.49503   1.50070   1.50575
 Alpha virt. eigenvalues --    1.50633   1.50786   1.50897   1.51279   1.51457
 Alpha virt. eigenvalues --    1.51688   1.51815   1.52393   1.52479   1.52846
 Alpha virt. eigenvalues --    1.53223   1.53302   1.53512   1.53755   1.54176
 Alpha virt. eigenvalues --    1.54697   1.54919   1.55142   1.55323   1.55363
 Alpha virt. eigenvalues --    1.55936   1.56051   1.56282   1.56508   1.56623
 Alpha virt. eigenvalues --    1.56989   1.57658   1.57751   1.57913   1.58267
 Alpha virt. eigenvalues --    1.58432   1.58858   1.59282   1.59767   1.59973
 Alpha virt. eigenvalues --    1.60155   1.60249   1.60880   1.61110   1.61308
 Alpha virt. eigenvalues --    1.61524   1.62103   1.62274   1.62627   1.62740
 Alpha virt. eigenvalues --    1.62926   1.63216   1.63378   1.63565   1.64024
 Alpha virt. eigenvalues --    1.64693   1.64970   1.65631   1.66035   1.66148
 Alpha virt. eigenvalues --    1.67126   1.67415   1.67884   1.68027   1.68501
 Alpha virt. eigenvalues --    1.68690   1.69181   1.69393   1.69638   1.70421
 Alpha virt. eigenvalues --    1.70750   1.71489   1.71679   1.71798   1.72158
 Alpha virt. eigenvalues --    1.72181   1.72372   1.72673   1.73179   1.73368
 Alpha virt. eigenvalues --    1.73895   1.74824   1.75107   1.75308   1.75540
 Alpha virt. eigenvalues --    1.75826   1.76048   1.76470   1.76675   1.76813
 Alpha virt. eigenvalues --    1.77039   1.77630   1.77660   1.78061   1.78179
 Alpha virt. eigenvalues --    1.78567   1.78958   1.79820   1.80149   1.80550
 Alpha virt. eigenvalues --    1.81328   1.81502   1.82117   1.82536   1.82705
 Alpha virt. eigenvalues --    1.82794   1.83007   1.83579   1.83763   1.84499
 Alpha virt. eigenvalues --    1.84777   1.84875   1.85071   1.85163   1.85381
 Alpha virt. eigenvalues --    1.86268   1.86460   1.86650   1.87201   1.87471
 Alpha virt. eigenvalues --    1.88327   1.88652   1.88731   1.89564   1.90049
 Alpha virt. eigenvalues --    1.90366   1.90467   1.90905   1.91156   1.91331
 Alpha virt. eigenvalues --    1.91621   1.91727   1.91989   1.92022   1.92242
 Alpha virt. eigenvalues --    1.92364   1.92962   1.93106   1.93392   1.93896
 Alpha virt. eigenvalues --    1.94265   1.94337   1.94455   1.94840   1.94954
 Alpha virt. eigenvalues --    1.95193   1.95490   1.95915   1.96329   1.97235
 Alpha virt. eigenvalues --    1.97599   1.98015   1.98184   1.98343   1.98891
 Alpha virt. eigenvalues --    1.99273   1.99553   2.00350   2.00571   2.00841
 Alpha virt. eigenvalues --    2.01474   2.01935   2.02658   2.03067   2.03703
 Alpha virt. eigenvalues --    2.04051   2.04649   2.05006   2.05166   2.05729
 Alpha virt. eigenvalues --    2.06238   2.06376   2.06668   2.07082   2.07148
 Alpha virt. eigenvalues --    2.08104   2.08548   2.08901   2.09073   2.09279
 Alpha virt. eigenvalues --    2.09682   2.10425   2.10687   2.10969   2.11030
 Alpha virt. eigenvalues --    2.12494   2.12590   2.13106   2.13600   2.14061
 Alpha virt. eigenvalues --    2.14374   2.14715   2.15172   2.15211   2.16352
 Alpha virt. eigenvalues --    2.17002   2.17072   2.17522   2.17801   2.17987
 Alpha virt. eigenvalues --    2.18311   2.18991   2.19921   2.20347   2.20907
 Alpha virt. eigenvalues --    2.21146   2.21609   2.21997   2.22354   2.24041
 Alpha virt. eigenvalues --    2.24419   2.25027   2.25992   2.26325   2.26967
 Alpha virt. eigenvalues --    2.27201   2.28688   2.29281   2.31072   2.32477
 Alpha virt. eigenvalues --    2.32628   2.32818   2.33116   2.33538   2.34006
 Alpha virt. eigenvalues --    2.34114   2.34390   2.34827   2.35617   2.36093
 Alpha virt. eigenvalues --    2.36602   2.36753   2.36854   2.37401   2.37836
 Alpha virt. eigenvalues --    2.37980   2.38359   2.38874   2.39106   2.39463
 Alpha virt. eigenvalues --    2.39777   2.40913   2.41597   2.42178   2.42620
 Alpha virt. eigenvalues --    2.42864   2.43885   2.44040   2.44202   2.44742
 Alpha virt. eigenvalues --    2.45197   2.45983   2.46302   2.46741   2.47178
 Alpha virt. eigenvalues --    2.47807   2.48534   2.48947   2.49430   2.50048
 Alpha virt. eigenvalues --    2.51234   2.51411   2.51781   2.52069   2.52264
 Alpha virt. eigenvalues --    2.52678   2.52895   2.53218   2.53669   2.54081
 Alpha virt. eigenvalues --    2.54628   2.54791   2.55094   2.55623   2.56347
 Alpha virt. eigenvalues --    2.56415   2.56635   2.57041   2.57108   2.57246
 Alpha virt. eigenvalues --    2.57869   2.58067   2.58654   2.58850   2.59215
 Alpha virt. eigenvalues --    2.59699   2.60166   2.60598   2.61100   2.61305
 Alpha virt. eigenvalues --    2.61518   2.61725   2.62093   2.62321   2.63178
 Alpha virt. eigenvalues --    2.63480   2.63696   2.63761   2.64072   2.64484
 Alpha virt. eigenvalues --    2.65218   2.65598   2.65930   2.66258   2.66437
 Alpha virt. eigenvalues --    2.66549   2.66856   2.66906   2.67493   2.68286
 Alpha virt. eigenvalues --    2.68400   2.68645   2.68988   2.69207   2.69436
 Alpha virt. eigenvalues --    2.69906   2.70145   2.70496   2.70712   2.70874
 Alpha virt. eigenvalues --    2.71173   2.71693   2.71944   2.72544   2.72654
 Alpha virt. eigenvalues --    2.73085   2.73600   2.73875   2.74590   2.74872
 Alpha virt. eigenvalues --    2.75138   2.75982   2.76245   2.76645   2.77220
 Alpha virt. eigenvalues --    2.77287   2.77964   2.78638   2.79246   2.79419
 Alpha virt. eigenvalues --    2.79716   2.80114   2.80435   2.80546   2.80958
 Alpha virt. eigenvalues --    2.81561   2.81880   2.82463   2.83041   2.83384
 Alpha virt. eigenvalues --    2.84181   2.85202   2.86017   2.86209   2.86355
 Alpha virt. eigenvalues --    2.86766   2.87217   2.87494   2.88465   2.88870
 Alpha virt. eigenvalues --    2.89186   2.89636   2.90066   2.90340   2.90587
 Alpha virt. eigenvalues --    2.91101   2.91543   2.91737   2.91832   2.92646
 Alpha virt. eigenvalues --    2.93009   2.93061   2.93242   2.93284   2.93418
 Alpha virt. eigenvalues --    2.93765   2.94148   2.95418   2.95701   2.95755
 Alpha virt. eigenvalues --    2.96296   2.96737   2.97331   2.97915   3.00331
 Alpha virt. eigenvalues --    3.00869   3.01648   3.02673   3.02788   3.03780
 Alpha virt. eigenvalues --    3.04090   3.04530   3.05157   3.05440   3.06071
 Alpha virt. eigenvalues --    3.06522   3.06712   3.07403   3.07569   3.07683
 Alpha virt. eigenvalues --    3.07819   3.09047   3.10034   3.10922   3.11549
 Alpha virt. eigenvalues --    3.12665   3.13058   3.14944   3.15512   3.16197
 Alpha virt. eigenvalues --    3.16358   3.18598   3.19926   3.20038   3.20950
 Alpha virt. eigenvalues --    3.22326   3.23896   3.24078   3.24522   3.25106
 Alpha virt. eigenvalues --    3.25627   3.26435   3.28234   3.29915   3.31369
 Alpha virt. eigenvalues --    3.31540   3.32463   3.32647   3.33707   3.35287
 Alpha virt. eigenvalues --    3.36090   3.36481   3.36926   3.37311   3.37638
 Alpha virt. eigenvalues --    3.38608   3.39015   3.39277   3.39682   3.40208
 Alpha virt. eigenvalues --    3.40983   3.41272   3.43034   3.43800   3.44034
 Alpha virt. eigenvalues --    3.44527   3.45709   3.49140   3.49510   3.50322
 Alpha virt. eigenvalues --    3.50707   3.50742   3.51097   3.51935   3.52044
 Alpha virt. eigenvalues --    3.52320   3.54341   3.54778   3.55276   3.57265
 Alpha virt. eigenvalues --    3.58334   3.59802   3.61506   3.61714   3.62384
 Alpha virt. eigenvalues --    3.63833   3.64352   3.65964   3.66895   3.67446
 Alpha virt. eigenvalues --    3.68134   3.68767   3.72695   3.74654   3.75395
 Alpha virt. eigenvalues --    3.76583   3.76724   3.77363   3.77585   3.77914
 Alpha virt. eigenvalues --    3.78807   3.79212   3.80091   3.80993   3.81532
 Alpha virt. eigenvalues --    3.85029   3.85112   3.85141   3.85326   3.85592
 Alpha virt. eigenvalues --    3.85826   3.86666   3.91414   3.91685   3.92582
 Alpha virt. eigenvalues --    3.96938   3.98743   3.99507   4.00101   4.00809
 Alpha virt. eigenvalues --    4.01946   4.02971   4.05745   4.06124   4.06431
 Alpha virt. eigenvalues --    4.06788   4.08859   4.09333   4.11903   4.12940
 Alpha virt. eigenvalues --    4.13336   4.16843   4.17787   4.18763   4.19152
 Alpha virt. eigenvalues --    4.20550   4.24097   4.24454   4.27243   4.29520
 Alpha virt. eigenvalues --    4.32212   4.37967   4.42433   4.47281   4.52623
 Alpha virt. eigenvalues --    4.61873   4.65879   4.69792   4.74972   4.80359
 Alpha virt. eigenvalues --    4.82987   4.83055   4.84903   4.85491   4.85835
 Alpha virt. eigenvalues --    4.85948   4.87987   4.96005   5.01218   5.03102
 Alpha virt. eigenvalues --    5.03371   5.05900   5.18802   5.20326   5.20955
 Alpha virt. eigenvalues --    5.32769   5.59413   5.82308   7.84375   7.86035
 Alpha virt. eigenvalues --    7.87465  17.21758  17.29151  17.31350  17.39170
 Alpha virt. eigenvalues --   17.41478  17.56511  17.58523  17.60247  17.63229
 Alpha virt. eigenvalues --   23.44395  23.54250  23.58811  23.65130  23.68023
 Alpha virt. eigenvalues --   23.69731  23.74326  23.79331  23.81501  23.88802
 Alpha virt. eigenvalues --   23.89246  23.92499  23.96191  23.97131  23.97229
 Alpha virt. eigenvalues --   23.97971  23.99142  23.99712  23.99737  24.00216
 Alpha virt. eigenvalues --   24.00233  24.01132  24.02229  24.02684  24.02751
 Alpha virt. eigenvalues --   24.02941  24.04014  24.05201  24.06361  24.06702
 Alpha virt. eigenvalues --   24.10660  24.11861  24.11973  24.13604  24.14387
 Alpha virt. eigenvalues --   24.14625  24.15857  24.17873  24.18464  24.19111
 Alpha virt. eigenvalues --   24.19788  24.21036  24.21143  24.21969  24.22101
 Alpha virt. eigenvalues --   24.22588  24.23639  24.26047  24.27286  24.29347
 Alpha virt. eigenvalues --   24.29378  25.24464  35.59153  35.67674  35.69723
 Alpha virt. eigenvalues --   35.70004  35.71875  49.97802  50.14969 189.15070
 Alpha virt. eigenvalues --  189.16234 189.18695
          Condensed to atoms (all electrons):
 Mulliken charges:
               1
     1  C   -0.270843
     2  C    0.024251
     3  C   -0.483753
     4  C    0.065735
     5  C    0.016632
     6  C   -0.171733
     7  C   -0.028941
     8  C   -0.080179
     9  C   -0.239044
    10  C    0.462727
    11  O   -0.311605
    12  O   -0.321226
    13  C   -0.029745
    14  C   -0.026557
    15  S    0.348545
    16  C   -0.222365
    17  C    0.072225
    18  C    0.162131
    19  N   -0.549574
    20  S    0.568276
    21  N   -0.541493
    22  C    0.158069
    23  C   -0.107560
    24  C   -0.129139
    25  C    0.111976
    26  C   -0.295711
    27  S    0.326378
    28  C    0.016503
    29  C   -0.043301
    30  C   -0.311432
    31  C   -0.302099
    32  C   -0.050676
    33  C   -0.068209
    34  C   -0.082314
    35  C   -0.062989
    36  C   -0.013969
    37  C    0.232942
    38  N   -0.645217
    39  C   -0.229812
    40  C    0.232781
    41  C   -0.049329
    42  C    0.271791
    43  C   -0.095541
    44  C    0.013100
    45  C   -0.067032
    46  C   -0.121447
    47  C   -0.106419
    48  C   -0.093513
    49  C    0.205092
    50  N   -0.653433
    51  C   -0.226153
    52  C    0.263277
    53  C   -0.081037
    54  C    0.024375
    55  C    0.210358
    56  N   -0.644262
    57  C   -0.229647
    58  C   -0.098453
    59  C   -0.104262
    60  C   -0.122791
    61  C   -0.062740
    62  C   -0.011395
    63  H    0.136008
    64  H    0.146485
    65  H    0.144736
    66  H    0.112238
    67  H    0.100386
    68  H    0.246148
    69  H    0.130059
    70  H    0.115220
    71  H    0.114542
    72  H    0.113517
    73  H    0.127755
    74  H    0.136045
    75  H    0.143862
    76  H    0.147549
    77  H    0.111478
    78  H    0.109928
    79  H    0.128182
    80  H    0.148271
    81  H    0.166435
    82  H    0.145068
    83  H    0.108204
    84  H    0.097828
    85  H    0.100778
    86  H    0.110337
    87  H    0.166286
    88  H    0.142440
    89  H    0.149306
    90  H    0.168411
    91  H    0.144451
    92  H    0.144870
    93  H    0.109977
    94  H    0.100665
    95  H    0.096745
    96  H    0.103730
    97  H    0.131837
 Sum of Mulliken charges =  -0.00000
 Mulliken charges with hydrogens summed into heavy atoms:
               1
     1  C    0.156386
     2  C    0.024251
     3  C   -0.483753
     4  C    0.065735
     5  C    0.016632
     6  C   -0.171733
     7  C    0.083297
     8  C    0.020207
     9  C   -0.239044
    10  C    0.462727
    11  O   -0.065457
    12  O   -0.321226
    13  C    0.100313
    14  C    0.088663
    15  S    0.348545
    16  C   -0.222365
    17  C    0.072225
    18  C    0.162131
    19  N   -0.549574
    20  S    0.568276
    21  N   -0.541493
    22  C    0.158069
    23  C    0.006983
    24  C   -0.015622
    25  C    0.111976
    26  C   -0.295711
    27  S    0.326378
    28  C    0.144258
    29  C   -0.043301
    30  C    0.116024
    31  C   -0.302099
    32  C   -0.050676
    33  C    0.043269
    34  C    0.027614
    35  C    0.065194
    36  C   -0.013969
    37  C    0.232942
    38  N   -0.645217
    39  C    0.229962
    40  C    0.232781
    41  C   -0.049329
    42  C    0.271791
    43  C   -0.095541
    44  C    0.013100
    45  C    0.041171
    46  C   -0.023619
    47  C   -0.005641
    48  C    0.016824
    49  C    0.205092
    50  N   -0.653433
    51  C    0.231878
    52  C    0.263277
    53  C   -0.081037
    54  C    0.024375
    55  C    0.210358
    56  N   -0.644262
    57  C    0.228084
    58  C    0.011524
    59  C   -0.003597
    60  C   -0.026045
    61  C    0.040990
    62  C    0.120442
 Electronic spatial extent (au):  <R**2>=         116034.0853
 Charge=             -0.0000 electrons
 Dipole moment (field-independent basis, Debye):
    X=             -5.1233    Y=             -5.2156    Z=              2.6075  Tot=              7.7621
 Quadrupole moment (field-independent basis, Debye-Ang):
   XX=           -377.6480   YY=           -377.2963   ZZ=           -379.2606
   XY=            -68.0991   XZ=             44.6658   YZ=             14.5085
 Traceless Quadrupole moment (field-independent basis, Debye-Ang):
   XX=              0.4203   YY=              0.7720   ZZ=             -1.1923
   XY=            -68.0991   XZ=             44.6658   YZ=             14.5085
 Octapole moment (field-independent basis, Debye-Ang**2):
  XXX=           -571.6237  YYY=           -284.7717  ZZZ=             27.5192  XYY=           -660.1399
  XXY=           -902.1431  XXZ=            296.4270  XZZ=            -72.9930  YZZ=            -13.0901
  YYZ=             99.5488  XYZ=            123.4994
 Hexadecapole moment (field-independent basis, Debye-Ang**3):
 XXXX=        -133252.6773 YYYY=         -25231.9625 ZZZZ=          -5409.3749 XXXY=         -13739.1570
 XXXZ=           8479.8678 YYYX=          -4706.1152 YYYZ=            493.8547 ZZZX=            170.2897
 ZZZY=            123.3528 XXYY=         -31217.7664 XXZZ=         -23365.6578 YYZZ=          -5037.1716
 XXYZ=           2726.7913 YYXZ=           1367.9304 ZZXY=           -108.6275
 N-N= 7.962139028355D+03 E-N=-2.440178708473D+04  KE= 3.607433138010D+03
 1\1\GINC-CN113\SP\RPBE1PBE TD-FC\6-311G(d,p)\C52H35N5O2S3\R2532\19-Jul
 -2021\0\\#N TD(NStates=10) PBE1PBE/6-311G(d,p)\\Name\\0,1\C,0,9.5725,-
 2.62523,0.622714\C,0,8.239196,-1.991206,0.350223\C,0,8.066035,-0.66293
 9,-0.006048\C,0,9.037824,0.329136,-0.178257\C,0,9.868849,1.200972,-0.3
 30786\C,0,10.832902,2.223419,-0.509322\C,0,12.20195,1.967704,-0.302263
 \C,0,13.138535,2.976377,-0.470222\C,0,12.744022,4.265838,-0.849649\C,0
 ,13.707576,5.391186,-1.067154\O,0,14.936269,5.262229,-0.496154\O,0,13.
 444192,6.372847,-1.707431\C,0,11.385741,4.515923,-1.081711\C,0,10.4420
 67,3.519119,-0.906263\S,0,6.367486,-0.285381,-0.247341\C,0,5.892851,-1
 .931697,0.136652\C,0,4.49124,-2.321388,0.1194\C,0,4.045086,-3.656567,0
 .426643\N,0,4.826441,-4.685318,0.757553\S,0,3.855372,-5.979721,1.00854
 2\N,0,2.404868,-5.284678,0.707382\C,0,2.628103,-4.007303,0.397647\C,0,
 3.477946,-1.43111,-0.195564\C,0,2.110145,-1.768213,-0.22197\C,0,1.6185
 07,-3.032369,0.062827\C,0,0.200274,-3.34431,0.024624\S,0,-0.978552,-2.
 124581,-0.437665\C,0,-0.451555,-4.524327,0.308653\C,0,-1.866186,-4.474
 899,0.179422\C,0,-2.739275,-5.66067,0.497717\C,0,-2.317711,-3.230734,-
 0.215118\C,0,-3.689063,-2.757154,-0.457375\C,0,-4.589015,-3.540927,-1.
 209351\C,0,-5.867652,-3.088,-1.501455\C,0,-4.105764,-1.510631,0.031617
 \C,0,-5.403856,-1.047611,-0.203123\C,0,-6.253955,-1.838216,-1.020255\N
 ,0,-7.435109,-1.157498,-1.249887\C,0,-8.634127,-1.833175,-1.718003\C,0
 ,-7.3604,0.089678,-0.632982\C,0,-6.156296,0.15514,0.118542\C,0,-5.9877
 49,1.267289,0.981336\C,0,-6.883402,2.369861,0.96418\C,0,-6.497472,3.24
 2595,2.059568\C,0,-7.033648,4.384988,2.672851\C,0,-6.401217,4.940793,3
 .778761\C,0,-5.235774,4.370533,4.304751\C,0,-4.70406,3.211801,3.751516
 \C,0,-5.351325,2.65175,2.649384\N,0,-5.061991,1.459295,1.999834\C,0,-4
 .207686,0.450846,2.605945\C,0,-7.921813,2.35898,0.002547\C,0,-8.220281
 ,1.205743,-0.771821\C,0,-9.312962,1.571147,-1.661645\C,0,-9.632895,2.9
 19542,-1.357383\N,0,-8.779443,3.386228,-0.367765\C,0,-8.567981,4.81050
 8,-0.161228\C,0,-10.628968,3.62745,-2.029638\C,0,-11.314396,2.982705,-
 3.052244\C,0,-10.991458,1.66699,-3.402555\C,0,-9.999776,0.966209,-2.72
 4938\C,0,7.009795,-2.689606,0.42596\H,0,10.381571,-1.899431,0.536912\H
 ,0,9.767996,-3.438633,-0.082877\H,0,9.60165,-3.053173,1.62929\H,0,12.5
 18966,0.972137,-0.018074\H,0,14.187707,2.731158,-0.337395\H,0,14.94313
 6,4.517058,0.115055\H,0,11.092449,5.508422,-1.400004\H,0,9.392654,3.72
 4733,-1.076925\H,0,3.734918,-0.406575,-0.439178\H,0,1.413764,-0.9798,-
 0.482094\H,0,0.082118,-5.408663,0.622755\H,0,-2.326673,-6.219817,1.341
 206\H,0,-2.803366,-6.353436,-0.348561\H,0,-3.754757,-5.356365,0.754493
 \H,0,-4.256931,-4.487894,-1.614906\H,0,-6.527019,-3.678286,-2.126191\H
 ,0,-3.397248,-0.916793,0.58884\H,0,-8.66931,-1.903308,-2.809266\H,0,-9
 .514439,-1.304965,-1.361471\H,0,-8.656745,-2.845031,-1.306219\H,0,-7.9
 51805,4.829499,2.318867\H,0,-6.822509,5.824297,4.244431\H,0,-4.749911,
 4.826352,5.159705\H,0,-3.811723,2.761687,4.168884\H,0,-4.598775,-0.540
 911,2.394537\H,0,-4.210287,0.58897,3.688162\H,0,-3.174548,0.51586,2.25
 1874\H,0,-7.549779,4.985612,0.174886\H,0,-9.266547,5.229593,0.569169\H
 ,0,-8.706522,5.332766,-1.110468\H,0,-10.866518,4.650342,-1.763883\H,0,
 -12.096272,3.508388,-3.588056\H,0,-11.516694,1.186325,-4.219928\H,0,-9
 .760401,-0.033771,-3.050741\H,0,6.935361,-3.733875,0.68851\\Version=ES
 64L-G16RevB.01\State=1-A\HF=-3618.7567136\RMSD=3.020e-09\PG=C01 [X(C52
 H35N5O2S3)]\\@


 NECESSARY EVIL: ONE WE LIKE TOO MUCH TO RELINQUISH.
 Job cpu time:       0 days  5 hours  9 minutes 20.1 seconds.
 Elapsed time:       0 days  5 hours 10 minutes 28.0 seconds.
 File lengths (MBytes):  RWF=  10829 Int=      0 D2E=      0 Chk=    679 Scr=      1
 Normal termination of Gaussian 16 at Mon Jul 19 15:14:14 2021.
