 Entering Gaussian System, Link 0=/usr/local/apps//g09/g09
 Input=MO.com
 Output=MO.out
 Initial command:
 /usr/local/apps//g09/l1.exe "/tmp/bnp.467995.sequoia/Gau-12372.inp" -scrdir="/tmp/bnp.467995.sequoia/"
 Entering Link 1 = /usr/local/apps//g09/l1.exe PID=     12373.
  
 Copyright (c) 1988,1990,1992,1993,1995,1998,2003,2009,2013,
            Gaussian, Inc.  All Rights Reserved.
  
 This is part of the Gaussian(R) 09 program.  It is based on
 the Gaussian(R) 03 system (copyright 2003, Gaussian, Inc.),
 the Gaussian(R) 98 system (copyright 1998, Gaussian, Inc.),
 the Gaussian(R) 94 system (copyright 1995, Gaussian, Inc.),
 the Gaussian 92(TM) system (copyright 1992, Gaussian, Inc.),
 the Gaussian 90(TM) system (copyright 1990, Gaussian, Inc.),
 the Gaussian 88(TM) system (copyright 1988, Gaussian, Inc.),
 the Gaussian 86(TM) system (copyright 1986, Carnegie Mellon
 University), and the Gaussian 82(TM) system (copyright 1983,
 Carnegie Mellon University). Gaussian is a federally registered
 trademark of Gaussian, Inc.
  
 This software contains proprietary and confidential information,
 including trade secrets, belonging to Gaussian, Inc.
  
 This software is provided under written license and may be
 used, copied, transmitted, or stored only in accord with that
 written license.
  
 The following legend is applicable only to US Government
 contracts under FAR:
  
                    RESTRICTED RIGHTS LEGEND
  
 Use, reproduction and disclosure by the US Government is
 subject to restrictions as set forth in subparagraphs (a)
 and (c) of the Commercial Computer Software - Restricted
 Rights clause in FAR 52.227-19.
  
 Gaussian, Inc.
 340 Quinnipiac St., Bldg. 40, Wallingford CT 06492
  
  
 ---------------------------------------------------------------
 Warning -- This program may not be used in any manner that
 competes with the business of Gaussian, Inc. or will provide
 assistance to any competitor of Gaussian, Inc.  The licensee
 of this program is prohibited from giving any competitor of
 Gaussian, Inc. access to this program.  By using this program,
 the user acknowledges that Gaussian, Inc. is engaged in the
 business of creating and licensing software in the field of
 computational chemistry and represents and warrants to the
 licensee that it is not a competitor of Gaussian, Inc. and that
 it will not use this program in any manner prohibited above.
 ---------------------------------------------------------------
  

 Cite this work as:
 Gaussian 09, Revision D.01,
 M. J. Frisch, G. W. Trucks, H. B. Schlegel, G. E. Scuseria, 
 M. A. Robb, J. R. Cheeseman, G. Scalmani, V. Barone, B. Mennucci, 
 G. A. Petersson, H. Nakatsuji, M. Caricato, X. Li, H. P. Hratchian, 
 A. F. Izmaylov, J. Bloino, G. Zheng, J. L. Sonnenberg, M. Hada, 
 M. Ehara, K. Toyota, R. Fukuda, J. Hasegawa, M. Ishida, T. Nakajima, 
 Y. Honda, O. Kitao, H. Nakai, T. Vreven, J. A. Montgomery, Jr., 
 J. E. Peralta, F. Ogliaro, M. Bearpark, J. J. Heyd, E. Brothers, 
 K. N. Kudin, V. N. Staroverov, T. Keith, R. Kobayashi, J. Normand, 
 K. Raghavachari, A. Rendell, J. C. Burant, S. S. Iyengar, J. Tomasi, 
 M. Cossi, N. Rega, J. M. Millam, M. Klene, J. E. Knox, J. B. Cross, 
 V. Bakken, C. Adamo, J. Jaramillo, R. Gomperts, R. E. Stratmann, 
 O. Yazyev, A. J. Austin, R. Cammi, C. Pomelli, J. W. Ochterski, 
 R. L. Martin, K. Morokuma, V. G. Zakrzewski, G. A. Voth, 
 P. Salvador, J. J. Dannenberg, S. Dapprich, A. D. Daniels, 
 O. Farkas, J. B. Foresman, J. V. Ortiz, J. Cioslowski, 
 and D. J. Fox, Gaussian, Inc., Wallingford CT, 2013.
 
 ******************************************
 Gaussian 09:  ES64L-G09RevD.01 24-Apr-2013
                30-May-2021 
 ******************************************
 %mem=8gb
 ----------------------------------------------------------
 #N TD(NStates=1,root=1) B3lYP/6-311G(d,p) OPT Guess=Sparse
 ----------------------------------------------------------
 1/14=-1,18=20,19=15,26=3,38=1/1,3;
 2/9=110,12=2,17=6,18=5,40=1/2;
 3/5=4,6=6,7=101,11=9,16=1,25=1,30=1,71=1,74=-5/1,2,8,3;
 4//1;
 5/5=2,38=5/2;
 8/6=1,10=2,107=1,108=1/1;
 9/8=1,15=2,41=1,42=1,70=2/14;
 10/5=4/2;
 6/7=2,8=2,9=2,10=2/1;
 7/12=6,13=5,14=1/1,2,3,16;
 1/14=-1,18=20,19=15,26=3/3(2);
 2/9=110/2;
 99//99;
 2/9=110/2;
 3/5=4,6=6,7=101,11=9,16=1,25=1,30=1,71=1,74=-5/1,2,8,3;
 4/5=5,16=3,69=1/1;
 5/5=2,38=5/2;
 8/6=1,10=2,107=1,108=1/1;
 9/8=1,15=2,41=1,42=1,49=4,70=2/14;
 10/5=4/2;
 7/12=6,13=5,14=1/1,2,3,16;
 1/14=-1,18=20,19=15,26=3/3(-8);
 2/9=110/2;
 6/7=2,8=2,9=2,10=2/1;
 99//99;
 ----
 name
 ----
 Symbolic Z-matrix:
 Charge =  0 Multiplicity = 1
 6                    -8.18249   7.12857  -1.10595 
 8                    -7.42423   6.34312  -0.19744 
 6                    -7.5943    4.99053  -0.21021 
 6                    -8.46962   4.30292  -1.0542 
 6                    -8.55607   2.91276  -0.98279 
 6                    -7.79456   2.18938  -0.06524 
 7                    -7.91427   0.76933   0.02046 
 6                    -6.77422  -0.05077   0.00591 
 6                    -6.76859  -1.29719   0.65948 
 6                    -5.6441   -2.1045    0.64103 
 6                    -4.46769  -1.71623  -0.02414 
 6                    -4.47861  -0.4671   -0.66724 
 6                    -5.59988   0.34647  -0.65834 
 1                    -5.57691   1.29358  -1.18167 
 1                    -3.60271  -0.13803  -1.21567 
 6                    -3.29801  -2.59042  -0.04035 
 16                   -1.67925  -1.94831  -0.23798 
 6                    -0.95647  -3.54292  -0.13865 
 6                    -1.93757  -4.49439   0.04475 
 6                    -3.24434  -3.96144   0.09347 
 1                    -4.13075  -4.57135   0.20492 
 1                    -1.7165   -5.548     0.15327 
 6                     0.46609  -3.75546  -0.25352 
 16                    1.62597  -2.48934   0.09096 
 6                     2.98241  -3.54288  -0.26359 
 6                     2.52668  -4.8025   -0.6028 
 6                     1.12366  -4.92082  -0.59969 
 1                     0.5986   -5.82419  -0.87889 
 1                     3.19202  -5.60749  -0.88481 
 6                     4.3482   -3.09528  -0.18096 
 6                     5.48985  -3.87575  -0.10766 
 6                     6.68132  -3.1349   -0.04921 
 6                     6.49506  -1.76173  -0.0655 
 16                    4.77339  -1.40069  -0.18014 
 6                     7.47084  -0.70005  -0.00417 
 6                     7.11059   0.64547   0.0181 
 6                     8.02713   1.70904   0.07505 
 6                     9.40489   1.52292   0.11638 
 6                     9.83934   0.14915   0.09659 
 6                     8.89384  -0.95133   0.03749 
 7                     9.48662  -2.14553   0.02673 
 16                    11.10304  -1.88727   0.08721 
 7                     11.10984  -0.25003   0.12872 
 6                     10.41614   2.5474    0.17702 
 6                     10.31804   3.90763   0.20624 
 6                     9.08674   4.62455   0.17921 
 7                     8.07401   5.18156   0.15628 
 6                     11.52734   4.77024   0.2703 
 8                     12.68259   4.06085   0.29514 
 1                     13.39522   4.71429   0.33615 
 8                     11.50277   5.97554   0.29799 
 1                     11.42922   2.16391   0.20395 
 1                     7.62185   2.7108    0.08811 
 1                     6.0591    0.90584  -0.00696 
 1                     7.6642   -3.57476   0.01645 
 1                     5.45769  -4.95616  -0.07315 
 1                    -5.66562  -3.04124   1.18587 
 1                    -7.64961  -1.62062   1.19872 
 6                    -9.22024   0.20113   0.11517 
 6                    -10.13961   0.68271   1.04701 
 6                    -11.42803   0.15491   1.12779 
 6                    -11.80829  -0.88771   0.2795 
 6                    -10.88714  -1.38091  -0.65371 
 6                    -9.61665  -0.83716  -0.74146 
 1                    -8.91767  -1.21786  -1.47661 
 1                    -11.19929  -2.18243  -1.31221 
 8                    -13.03519  -1.48295   0.27622 
 6                    -14.01309  -1.02042   1.19658 
 1                    -13.68725  -1.1581    2.2338 
 1                    -14.25482   0.03541   1.02963 
 1                    -14.90055  -1.62474   1.01626 
 1                    -12.11458   0.55781   1.86016 
 1                    -9.85      1.48633   1.71356 
 6                    -6.92769   2.8905    0.78659 
 6                    -6.82057   4.26876   0.70812 
 1                    -6.15277   4.81606   1.36226 
 1                    -6.33444   2.34484   1.51064 
 1                    -9.23205   2.38559  -1.64544 
 1                    -9.07899   4.83012  -1.77583 
 1                    -7.89437   8.1615   -0.91818 
 1                    -7.95366   6.87344  -2.14684 
 1                    -9.25887   7.01634  -0.93299 
 

 GradGradGradGradGradGradGradGradGradGradGradGradGradGradGradGradGradGrad
 Berny optimization.
 Initialization pass.
                           ----------------------------
                           !    Initial Parameters    !
                           ! (Angstroms and Degrees)  !
 --------------------------                            --------------------------
 ! Name  Definition              Value          Derivative Info.                !
 --------------------------------------------------------------------------------
 ! R1    R(1,2)                  1.4203         estimate D2E/DX2                !
 ! R2    R(1,80)                 1.0887         estimate D2E/DX2                !
 ! R3    R(1,81)                 1.0959         estimate D2E/DX2                !
 ! R4    R(1,82)                 1.096          estimate D2E/DX2                !
 ! R5    R(2,3)                  1.3633         estimate D2E/DX2                !
 ! R6    R(3,4)                  1.3969         estimate D2E/DX2                !
 ! R7    R(3,75)                 1.401          estimate D2E/DX2                !
 ! R8    R(4,5)                  1.3947         estimate D2E/DX2                !
 ! R9    R(4,79)                 1.0817         estimate D2E/DX2                !
 ! R10   R(5,6)                  1.3947         estimate D2E/DX2                !
 ! R11   R(5,78)                 1.0835         estimate D2E/DX2                !
 ! R12   R(6,7)                  1.4277         estimate D2E/DX2                !
 ! R13   R(6,74)                 1.4031         estimate D2E/DX2                !
 ! R14   R(7,8)                  1.4045         estimate D2E/DX2                !
 ! R15   R(7,59)                 1.4274         estimate D2E/DX2                !
 ! R16   R(8,9)                  1.4074         estimate D2E/DX2                !
 ! R17   R(8,13)                 1.4065         estimate D2E/DX2                !
 ! R18   R(9,10)                 1.3844         estimate D2E/DX2                !
 ! R19   R(9,58)                 1.0824         estimate D2E/DX2                !
 ! R20   R(10,11)                1.4061         estimate D2E/DX2                !
 ! R21   R(10,57)                1.0839         estimate D2E/DX2                !
 ! R22   R(11,12)                1.405          estimate D2E/DX2                !
 ! R23   R(11,16)                1.4604         estimate D2E/DX2                !
 ! R24   R(12,13)                1.3854         estimate D2E/DX2                !
 ! R25   R(12,15)                1.0846         estimate D2E/DX2                !
 ! R26   R(13,14)                1.0823         estimate D2E/DX2                !
 ! R27   R(16,17)                1.7526         estimate D2E/DX2                !
 ! R28   R(16,20)                1.3786         estimate D2E/DX2                !
 ! R29   R(17,18)                1.7536         estimate D2E/DX2                !
 ! R30   R(18,19)                1.3789         estimate D2E/DX2                !
 ! R31   R(18,23)                1.4429         estimate D2E/DX2                !
 ! R32   R(19,20)                1.4121         estimate D2E/DX2                !
 ! R33   R(19,22)                1.082          estimate D2E/DX2                !
 ! R34   R(20,21)                1.0817         estimate D2E/DX2                !
 ! R35   R(23,24)                1.7513         estimate D2E/DX2                !
 ! R36   R(23,27)                1.3821         estimate D2E/DX2                !
 ! R37   R(24,25)                1.7537         estimate D2E/DX2                !
 ! R38   R(25,26)                1.3818         estimate D2E/DX2                !
 ! R39   R(25,30)                1.4396         estimate D2E/DX2                !
 ! R40   R(26,27)                1.408          estimate D2E/DX2                !
 ! R41   R(26,29)                1.0818         estimate D2E/DX2                !
 ! R42   R(27,28)                1.0815         estimate D2E/DX2                !
 ! R43   R(30,31)                1.3849         estimate D2E/DX2                !
 ! R44   R(30,34)                1.7471         estimate D2E/DX2                !
 ! R45   R(31,32)                1.4042         estimate D2E/DX2                !
 ! R46   R(31,56)                1.0814         estimate D2E/DX2                !
 ! R47   R(32,33)                1.3858         estimate D2E/DX2                !
 ! R48   R(32,55)                1.0788         estimate D2E/DX2                !
 ! R49   R(33,34)                1.7628         estimate D2E/DX2                !
 ! R50   R(33,35)                1.4433         estimate D2E/DX2                !
 ! R51   R(35,36)                1.3931         estimate D2E/DX2                !
 ! R52   R(35,40)                1.4456         estimate D2E/DX2                !
 ! R53   R(36,37)                1.4052         estimate D2E/DX2                !
 ! R54   R(36,54)                1.0835         estimate D2E/DX2                !
 ! R55   R(37,38)                1.3909         estimate D2E/DX2                !
 ! R56   R(37,53)                1.0807         estimate D2E/DX2                !
 ! R57   R(38,39)                1.441          estimate D2E/DX2                !
 ! R58   R(38,44)                1.4408         estimate D2E/DX2                !
 ! R59   R(39,40)                1.4521         estimate D2E/DX2                !
 ! R60   R(39,43)                1.3321         estimate D2E/DX2                !
 ! R61   R(40,41)                1.3333         estimate D2E/DX2                !
 ! R62   R(41,42)                1.638          estimate D2E/DX2                !
 ! R63   R(42,43)                1.6378         estimate D2E/DX2                !
 ! R64   R(44,45)                1.3641         estimate D2E/DX2                !
 ! R65   R(44,52)                1.0836         estimate D2E/DX2                !
 ! R66   R(45,46)                1.4251         estimate D2E/DX2                !
 ! R67   R(45,48)                1.4868         estimate D2E/DX2                !
 ! R68   R(46,47)                1.156          estimate D2E/DX2                !
 ! R69   R(48,49)                1.3559         estimate D2E/DX2                !
 ! R70   R(48,51)                1.2059         estimate D2E/DX2                !
 ! R71   R(49,50)                0.9677         estimate D2E/DX2                !
 ! R72   R(59,60)                1.3948         estimate D2E/DX2                !
 ! R73   R(59,64)                1.4032         estimate D2E/DX2                !
 ! R74   R(60,61)                1.3947         estimate D2E/DX2                !
 ! R75   R(60,73)                1.0835         estimate D2E/DX2                !
 ! R76   R(61,62)                1.3969         estimate D2E/DX2                !
 ! R77   R(61,72)                1.0817         estimate D2E/DX2                !
 ! R78   R(62,63)                1.4009         estimate D2E/DX2                !
 ! R79   R(62,67)                1.3637         estimate D2E/DX2                !
 ! R80   R(63,64)                1.3847         estimate D2E/DX2                !
 ! R81   R(63,66)                1.0833         estimate D2E/DX2                !
 ! R82   R(64,65)                1.0835         estimate D2E/DX2                !
 ! R83   R(67,68)                1.4203         estimate D2E/DX2                !
 ! R84   R(68,69)                1.0959         estimate D2E/DX2                !
 ! R85   R(68,70)                1.0959         estimate D2E/DX2                !
 ! R86   R(68,71)                1.0887         estimate D2E/DX2                !
 ! R87   R(74,75)                1.3846         estimate D2E/DX2                !
 ! R88   R(74,77)                1.0835         estimate D2E/DX2                !
 ! R89   R(75,76)                1.0832         estimate D2E/DX2                !
 ! A1    A(2,1,80)             105.8475         estimate D2E/DX2                !
 ! A2    A(2,1,81)             111.5518         estimate D2E/DX2                !
 ! A3    A(2,1,82)             111.5157         estimate D2E/DX2                !
 ! A4    A(80,1,81)            109.236          estimate D2E/DX2                !
 ! A5    A(80,1,82)            109.2604         estimate D2E/DX2                !
 ! A6    A(81,1,82)            109.3385         estimate D2E/DX2                !
 ! A7    A(1,2,3)              118.4297         estimate D2E/DX2                !
 ! A8    A(2,3,4)              124.904          estimate D2E/DX2                !
 ! A9    A(2,3,75)             115.8549         estimate D2E/DX2                !
 ! A10   A(4,3,75)             119.2408         estimate D2E/DX2                !
 ! A11   A(3,4,5)              119.9043         estimate D2E/DX2                !
 ! A12   A(3,4,79)             121.0761         estimate D2E/DX2                !
 ! A13   A(5,4,79)             119.016          estimate D2E/DX2                !
 ! A14   A(4,5,6)              121.1207         estimate D2E/DX2                !
 ! A15   A(4,5,78)             119.4936         estimate D2E/DX2                !
 ! A16   A(6,5,78)             119.3838         estimate D2E/DX2                !
 ! A17   A(5,6,7)              120.6388         estimate D2E/DX2                !
 ! A18   A(5,6,74)             118.5276         estimate D2E/DX2                !
 ! A19   A(7,6,74)             120.8236         estimate D2E/DX2                !
 ! A20   A(6,7,8)              120.8058         estimate D2E/DX2                !
 ! A21   A(6,7,59)             118.4671         estimate D2E/DX2                !
 ! A22   A(8,7,59)             120.7265         estimate D2E/DX2                !
 ! A23   A(7,8,9)              121.036          estimate D2E/DX2                !
 ! A24   A(7,8,13)             121.1807         estimate D2E/DX2                !
 ! A25   A(9,8,13)             117.7831         estimate D2E/DX2                !
 ! A26   A(8,9,10)             120.8977         estimate D2E/DX2                !
 ! A27   A(8,9,58)             119.5205         estimate D2E/DX2                !
 ! A28   A(10,9,58)            119.5726         estimate D2E/DX2                !
 ! A29   A(9,10,11)            121.6581         estimate D2E/DX2                !
 ! A30   A(9,10,57)            118.7613         estimate D2E/DX2                !
 ! A31   A(11,10,57)           119.5409         estimate D2E/DX2                !
 ! A32   A(10,11,12)           117.0984         estimate D2E/DX2                !
 ! A33   A(10,11,16)           120.6686         estimate D2E/DX2                !
 ! A34   A(12,11,16)           122.2323         estimate D2E/DX2                !
 ! A35   A(11,12,13)           121.6997         estimate D2E/DX2                !
 ! A36   A(11,12,15)           119.6648         estimate D2E/DX2                !
 ! A37   A(13,12,15)           118.6023         estimate D2E/DX2                !
 ! A38   A(8,13,12)            120.8612         estimate D2E/DX2                !
 ! A39   A(8,13,14)            119.5539         estimate D2E/DX2                !
 ! A40   A(12,13,14)           119.5787         estimate D2E/DX2                !
 ! A41   A(11,16,17)           121.4472         estimate D2E/DX2                !
 ! A42   A(11,16,20)           128.7144         estimate D2E/DX2                !
 ! A43   A(17,16,20)           109.8371         estimate D2E/DX2                !
 ! A44   A(16,17,18)            92.358          estimate D2E/DX2                !
 ! A45   A(17,18,19)           109.9818         estimate D2E/DX2                !
 ! A46   A(17,18,23)           122.3974         estimate D2E/DX2                !
 ! A47   A(19,18,23)           127.6183         estimate D2E/DX2                !
 ! A48   A(18,19,20)           113.7401         estimate D2E/DX2                !
 ! A49   A(18,19,22)           122.6739         estimate D2E/DX2                !
 ! A50   A(20,19,22)           123.5814         estimate D2E/DX2                !
 ! A51   A(16,20,19)           114.0807         estimate D2E/DX2                !
 ! A52   A(16,20,21)           122.6044         estimate D2E/DX2                !
 ! A53   A(19,20,21)           123.3031         estimate D2E/DX2                !
 ! A54   A(18,23,24)           122.0594         estimate D2E/DX2                !
 ! A55   A(18,23,27)           127.8197         estimate D2E/DX2                !
 ! A56   A(24,23,27)           110.1051         estimate D2E/DX2                !
 ! A57   A(23,24,25)            92.188          estimate D2E/DX2                !
 ! A58   A(24,25,26)           110.0086         estimate D2E/DX2                !
 ! A59   A(24,25,30)           122.3711         estimate D2E/DX2                !
 ! A60   A(26,25,30)           127.6181         estimate D2E/DX2                !
 ! A61   A(25,26,27)           113.8723         estimate D2E/DX2                !
 ! A62   A(25,26,29)           122.6489         estimate D2E/DX2                !
 ! A63   A(27,26,29)           123.43           estimate D2E/DX2                !
 ! A64   A(23,27,26)           113.8144         estimate D2E/DX2                !
 ! A65   A(23,27,28)           122.544          estimate D2E/DX2                !
 ! A66   A(26,27,28)           123.5993         estimate D2E/DX2                !
 ! A67   A(25,30,31)           127.5822         estimate D2E/DX2                !
 ! A68   A(25,30,34)           122.1728         estimate D2E/DX2                !
 ! A69   A(31,30,34)           110.2415         estimate D2E/DX2                !
 ! A70   A(30,31,32)           113.8496         estimate D2E/DX2                !
 ! A71   A(30,31,56)           122.6982         estimate D2E/DX2                !
 ! A72   A(32,31,56)           123.4342         estimate D2E/DX2                !
 ! A73   A(31,32,33)           114.0935         estimate D2E/DX2                !
 ! A74   A(31,32,55)           124.0871         estimate D2E/DX2                !
 ! A75   A(33,32,55)           121.8144         estimate D2E/DX2                !
 ! A76   A(32,33,34)           109.5702         estimate D2E/DX2                !
 ! A77   A(32,33,35)           129.6057         estimate D2E/DX2                !
 ! A78   A(34,33,35)           120.8241         estimate D2E/DX2                !
 ! A79   A(30,34,33)            92.239          estimate D2E/DX2                !
 ! A80   A(33,35,36)           122.4336         estimate D2E/DX2                !
 ! A81   A(33,35,40)           122.6071         estimate D2E/DX2                !
 ! A82   A(36,35,40)           114.9593         estimate D2E/DX2                !
 ! A83   A(35,36,37)           124.2657         estimate D2E/DX2                !
 ! A84   A(35,36,54)           118.8603         estimate D2E/DX2                !
 ! A85   A(37,36,54)           116.8739         estimate D2E/DX2                !
 ! A86   A(36,37,38)           123.0949         estimate D2E/DX2                !
 ! A87   A(36,37,53)           117.225          estimate D2E/DX2                !
 ! A88   A(38,37,53)           119.68           estimate D2E/DX2                !
 ! A89   A(37,38,39)           115.2025         estimate D2E/DX2                !
 ! A90   A(37,38,44)           126.9662         estimate D2E/DX2                !
 ! A91   A(39,38,44)           117.8313         estimate D2E/DX2                !
 ! A92   A(38,39,40)           121.7873         estimate D2E/DX2                !
 ! A93   A(38,39,43)           124.9528         estimate D2E/DX2                !
 ! A94   A(40,39,43)           113.2599         estimate D2E/DX2                !
 ! A95   A(35,40,39)           120.6903         estimate D2E/DX2                !
 ! A96   A(35,40,41)           126.3777         estimate D2E/DX2                !
 ! A97   A(39,40,41)           112.932          estimate D2E/DX2                !
 ! A98   A(40,41,42)           107.2908         estimate D2E/DX2                !
 ! A99   A(41,42,43)            99.3603         estimate D2E/DX2                !
 ! A100  A(39,43,42)           107.1569         estimate D2E/DX2                !
 ! A101  A(38,44,45)           131.26           estimate D2E/DX2                !
 ! A102  A(38,44,52)           113.9288         estimate D2E/DX2                !
 ! A103  A(45,44,52)           114.8112         estimate D2E/DX2                !
 ! A104  A(44,45,46)           124.2913         estimate D2E/DX2                !
 ! A105  A(44,45,48)           121.3969         estimate D2E/DX2                !
 ! A106  A(46,45,48)           114.3119         estimate D2E/DX2                !
 ! A107  A(45,48,49)           112.9696         estimate D2E/DX2                !
 ! A108  A(45,48,51)           124.3548         estimate D2E/DX2                !
 ! A109  A(49,48,51)           122.6756         estimate D2E/DX2                !
 ! A110  A(48,49,50)           105.9573         estimate D2E/DX2                !
 ! A111  A(7,59,60)            120.6615         estimate D2E/DX2                !
 ! A112  A(7,59,64)            120.8317         estimate D2E/DX2                !
 ! A113  A(60,59,64)           118.4973         estimate D2E/DX2                !
 ! A114  A(59,60,61)           121.1281         estimate D2E/DX2                !
 ! A115  A(59,60,73)           119.399          estimate D2E/DX2                !
 ! A116  A(61,60,73)           119.4708         estimate D2E/DX2                !
 ! A117  A(60,61,62)           119.9185         estimate D2E/DX2                !
 ! A118  A(60,61,72)           118.9864         estimate D2E/DX2                !
 ! A119  A(62,61,72)           121.0916         estimate D2E/DX2                !
 ! A120  A(61,62,63)           119.2295         estimate D2E/DX2                !
 ! A121  A(61,62,67)           124.902          estimate D2E/DX2                !
 ! A122  A(63,62,67)           115.8681         estimate D2E/DX2                !
 ! A123  A(62,63,64)           120.4801         estimate D2E/DX2                !
 ! A124  A(62,63,66)           118.4207         estimate D2E/DX2                !
 ! A125  A(64,63,66)           121.0909         estimate D2E/DX2                !
 ! A126  A(59,64,63)           120.7345         estimate D2E/DX2                !
 ! A127  A(59,64,65)           119.4691         estimate D2E/DX2                !
 ! A128  A(63,64,65)           119.7961         estimate D2E/DX2                !
 ! A129  A(62,67,68)           118.408          estimate D2E/DX2                !
 ! A130  A(67,68,69)           111.5726         estimate D2E/DX2                !
 ! A131  A(67,68,70)           111.5242         estimate D2E/DX2                !
 ! A132  A(67,68,71)           105.8513         estimate D2E/DX2                !
 ! A133  A(69,68,70)           109.3176         estimate D2E/DX2                !
 ! A134  A(69,68,71)           109.2315         estimate D2E/DX2                !
 ! A135  A(70,68,71)           109.2528         estimate D2E/DX2                !
 ! A136  A(6,74,75)            120.716          estimate D2E/DX2                !
 ! A137  A(6,74,77)            119.4946         estimate D2E/DX2                !
 ! A138  A(75,74,77)           119.7892         estimate D2E/DX2                !
 ! A139  A(3,75,74)            120.479          estimate D2E/DX2                !
 ! A140  A(3,75,76)            118.4235         estimate D2E/DX2                !
 ! A141  A(74,75,76)           121.0898         estimate D2E/DX2                !
 ! A142  L(45,46,47,18,-1)     178.6005         estimate D2E/DX2                !
 ! A143  L(45,46,47,18,-2)     180.025          estimate D2E/DX2                !
 ! D1    D(80,1,2,3)           179.668          estimate D2E/DX2                !
 ! D2    D(81,1,2,3)           -61.6247         estimate D2E/DX2                !
 ! D3    D(82,1,2,3)            60.9508         estimate D2E/DX2                !
 ! D4    D(1,2,3,4)             -0.1895         estimate D2E/DX2                !
 ! D5    D(1,2,3,75)          -179.9616         estimate D2E/DX2                !
 ! D6    D(2,3,4,5)            179.6999         estimate D2E/DX2                !
 ! D7    D(2,3,4,79)             0.3918         estimate D2E/DX2                !
 ! D8    D(75,3,4,5)            -0.5351         estimate D2E/DX2                !
 ! D9    D(75,3,4,79)         -179.8432         estimate D2E/DX2                !
 ! D10   D(2,3,75,74)          179.3255         estimate D2E/DX2                !
 ! D11   D(2,3,75,76)            0.3261         estimate D2E/DX2                !
 ! D12   D(4,3,75,74)           -0.4603         estimate D2E/DX2                !
 ! D13   D(4,3,75,76)         -179.4598         estimate D2E/DX2                !
 ! D14   D(3,4,5,6)              0.9406         estimate D2E/DX2                !
 ! D15   D(3,4,5,78)          -179.5669         estimate D2E/DX2                !
 ! D16   D(79,4,5,6)          -179.7371         estimate D2E/DX2                !
 ! D17   D(79,4,5,78)           -0.2446         estimate D2E/DX2                !
 ! D18   D(4,5,6,7)            178.5226         estimate D2E/DX2                !
 ! D19   D(4,5,6,74)            -0.3395         estimate D2E/DX2                !
 ! D20   D(78,5,6,7)            -0.9704         estimate D2E/DX2                !
 ! D21   D(78,5,6,74)         -179.8325         estimate D2E/DX2                !
 ! D22   D(5,6,7,8)            130.3314         estimate D2E/DX2                !
 ! D23   D(5,6,7,59)           -49.3856         estimate D2E/DX2                !
 ! D24   D(74,6,7,8)           -50.8327         estimate D2E/DX2                !
 ! D25   D(74,6,7,59)          129.4502         estimate D2E/DX2                !
 ! D26   D(5,6,74,75)           -0.6667         estimate D2E/DX2                !
 ! D27   D(5,6,74,77)          179.5283         estimate D2E/DX2                !
 ! D28   D(7,6,74,75)         -179.5266         estimate D2E/DX2                !
 ! D29   D(7,6,74,77)            0.6683         estimate D2E/DX2                !
 ! D30   D(6,7,8,9)            151.1171         estimate D2E/DX2                !
 ! D31   D(6,7,8,13)           -28.7165         estimate D2E/DX2                !
 ! D32   D(59,7,8,9)           -29.1722         estimate D2E/DX2                !
 ! D33   D(59,7,8,13)          150.9942         estimate D2E/DX2                !
 ! D34   D(6,7,59,60)          -49.4981         estimate D2E/DX2                !
 ! D35   D(6,7,59,64)          129.3621         estimate D2E/DX2                !
 ! D36   D(8,7,59,60)          130.7846         estimate D2E/DX2                !
 ! D37   D(8,7,59,64)          -50.3552         estimate D2E/DX2                !
 ! D38   D(7,8,9,10)           179.869          estimate D2E/DX2                !
 ! D39   D(7,8,9,58)            -1.2419         estimate D2E/DX2                !
 ! D40   D(13,8,9,10)           -0.2919         estimate D2E/DX2                !
 ! D41   D(13,8,9,58)          178.5972         estimate D2E/DX2                !
 ! D42   D(7,8,13,12)          179.9289         estimate D2E/DX2                !
 ! D43   D(7,8,13,14)           -0.9838         estimate D2E/DX2                !
 ! D44   D(9,8,13,12)            0.09           estimate D2E/DX2                !
 ! D45   D(9,8,13,14)          179.1774         estimate D2E/DX2                !
 ! D46   D(8,9,10,11)            0.1103         estimate D2E/DX2                !
 ! D47   D(8,9,10,57)          177.8067         estimate D2E/DX2                !
 ! D48   D(58,9,10,11)        -178.7783         estimate D2E/DX2                !
 ! D49   D(58,9,10,57)          -1.0818         estimate D2E/DX2                !
 ! D50   D(9,10,11,12)           0.2694         estimate D2E/DX2                !
 ! D51   D(9,10,11,16)        -179.4251         estimate D2E/DX2                !
 ! D52   D(57,10,11,12)       -177.4095         estimate D2E/DX2                !
 ! D53   D(57,10,11,16)          2.8961         estimate D2E/DX2                !
 ! D54   D(10,11,12,13)         -0.474          estimate D2E/DX2                !
 ! D55   D(10,11,12,15)       -178.3467         estimate D2E/DX2                !
 ! D56   D(16,11,12,13)        179.2153         estimate D2E/DX2                !
 ! D57   D(16,11,12,15)          1.3426         estimate D2E/DX2                !
 ! D58   D(10,11,16,17)       -154.2856         estimate D2E/DX2                !
 ! D59   D(10,11,16,20)         25.2569         estimate D2E/DX2                !
 ! D60   D(12,11,16,17)         26.0359         estimate D2E/DX2                !
 ! D61   D(12,11,16,20)       -154.4215         estimate D2E/DX2                !
 ! D62   D(11,12,13,8)           0.3009         estimate D2E/DX2                !
 ! D63   D(11,12,13,14)       -178.7863         estimate D2E/DX2                !
 ! D64   D(15,12,13,8)         178.1954         estimate D2E/DX2                !
 ! D65   D(15,12,13,14)         -0.8917         estimate D2E/DX2                !
 ! D66   D(11,16,17,18)        179.6889         estimate D2E/DX2                !
 ! D67   D(20,16,17,18)          0.0684         estimate D2E/DX2                !
 ! D68   D(11,16,20,19)       -179.3724         estimate D2E/DX2                !
 ! D69   D(11,16,20,21)          1.8377         estimate D2E/DX2                !
 ! D70   D(17,16,20,19)          0.2127         estimate D2E/DX2                !
 ! D71   D(17,16,20,21)       -178.5772         estimate D2E/DX2                !
 ! D72   D(16,17,18,19)         -0.3317         estimate D2E/DX2                !
 ! D73   D(16,17,18,23)        179.1308         estimate D2E/DX2                !
 ! D74   D(17,18,19,20)          0.5144         estimate D2E/DX2                !
 ! D75   D(17,18,19,22)       -178.7318         estimate D2E/DX2                !
 ! D76   D(23,18,19,20)       -178.9126         estimate D2E/DX2                !
 ! D77   D(23,18,19,22)          1.8412         estimate D2E/DX2                !
 ! D78   D(17,18,23,24)         23.2052         estimate D2E/DX2                !
 ! D79   D(17,18,23,27)       -158.387          estimate D2E/DX2                !
 ! D80   D(19,18,23,24)       -157.4326         estimate D2E/DX2                !
 ! D81   D(19,18,23,27)         20.9753         estimate D2E/DX2                !
 ! D82   D(18,19,20,16)         -0.4844         estimate D2E/DX2                !
 ! D83   D(18,19,20,21)        178.296          estimate D2E/DX2                !
 ! D84   D(22,19,20,16)        178.754          estimate D2E/DX2                !
 ! D85   D(22,19,20,21)         -2.4657         estimate D2E/DX2                !
 ! D86   D(18,23,24,25)        179.5635         estimate D2E/DX2                !
 ! D87   D(27,23,24,25)          0.9027         estimate D2E/DX2                !
 ! D88   D(18,23,27,26)       -179.1382         estimate D2E/DX2                !
 ! D89   D(18,23,27,28)          3.1472         estimate D2E/DX2                !
 ! D90   D(24,23,27,26)         -0.5751         estimate D2E/DX2                !
 ! D91   D(24,23,27,28)       -178.2896         estimate D2E/DX2                !
 ! D92   D(23,24,25,26)         -1.011          estimate D2E/DX2                !
 ! D93   D(23,24,25,30)        179.4949         estimate D2E/DX2                !
 ! D94   D(24,25,26,27)          0.8759         estimate D2E/DX2                !
 ! D95   D(24,25,26,29)        178.4139         estimate D2E/DX2                !
 ! D96   D(30,25,26,27)       -179.6636         estimate D2E/DX2                !
 ! D97   D(30,25,26,29)         -2.1256         estimate D2E/DX2                !
 ! D98   D(24,25,30,31)        162.668          estimate D2E/DX2                !
 ! D99   D(24,25,30,34)        -18.0747         estimate D2E/DX2                !
 ! D100  D(26,25,30,31)        -16.7318         estimate D2E/DX2                !
 ! D101  D(26,25,30,34)        162.5254         estimate D2E/DX2                !
 ! D102  D(25,26,27,23)         -0.2007         estimate D2E/DX2                !
 ! D103  D(25,26,27,28)        177.4863         estimate D2E/DX2                !
 ! D104  D(29,26,27,23)       -177.7168         estimate D2E/DX2                !
 ! D105  D(29,26,27,28)         -0.0298         estimate D2E/DX2                !
 ! D106  D(25,30,31,32)        179.4502         estimate D2E/DX2                !
 ! D107  D(25,30,31,56)         -2.0451         estimate D2E/DX2                !
 ! D108  D(34,30,31,32)          0.1203         estimate D2E/DX2                !
 ! D109  D(34,30,31,56)        178.625          estimate D2E/DX2                !
 ! D110  D(25,30,34,33)       -179.8592         estimate D2E/DX2                !
 ! D111  D(31,30,34,33)         -0.4865         estimate D2E/DX2                !
 ! D112  D(30,31,32,33)          0.4575         estimate D2E/DX2                !
 ! D113  D(30,31,32,55)        179.6646         estimate D2E/DX2                !
 ! D114  D(56,31,32,33)       -178.0347         estimate D2E/DX2                !
 ! D115  D(56,31,32,55)          1.1724         estimate D2E/DX2                !
 ! D116  D(31,32,33,34)         -0.8024         estimate D2E/DX2                !
 ! D117  D(31,32,33,35)        179.1949         estimate D2E/DX2                !
 ! D118  D(55,32,33,34)        179.9704         estimate D2E/DX2                !
 ! D119  D(55,32,33,35)         -0.0323         estimate D2E/DX2                !
 ! D120  D(32,33,34,30)          0.7299         estimate D2E/DX2                !
 ! D121  D(35,33,34,30)       -179.2677         estimate D2E/DX2                !
 ! D122  D(32,33,35,36)       -177.5695         estimate D2E/DX2                !
 ! D123  D(32,33,35,40)          2.4898         estimate D2E/DX2                !
 ! D124  D(34,33,35,36)          2.4276         estimate D2E/DX2                !
 ! D125  D(34,33,35,40)       -177.5132         estimate D2E/DX2                !
 ! D126  D(33,35,36,37)       -179.8831         estimate D2E/DX2                !
 ! D127  D(33,35,36,54)          0.2853         estimate D2E/DX2                !
 ! D128  D(40,35,36,37)          0.0619         estimate D2E/DX2                !
 ! D129  D(40,35,36,54)       -179.7697         estimate D2E/DX2                !
 ! D130  D(33,35,40,39)        179.8976         estimate D2E/DX2                !
 ! D131  D(33,35,40,41)         -0.043          estimate D2E/DX2                !
 ! D132  D(36,35,40,39)         -0.0473         estimate D2E/DX2                !
 ! D133  D(36,35,40,41)       -179.9879         estimate D2E/DX2                !
 ! D134  D(35,36,37,38)         -0.0451         estimate D2E/DX2                !
 ! D135  D(35,36,37,53)       -179.9424         estimate D2E/DX2                !
 ! D136  D(54,36,37,38)        179.7895         estimate D2E/DX2                !
 ! D137  D(54,36,37,53)         -0.1077         estimate D2E/DX2                !
 ! D138  D(36,37,38,39)          0.009          estimate D2E/DX2                !
 ! D139  D(36,37,38,44)       -179.9256         estimate D2E/DX2                !
 ! D140  D(53,37,38,39)        179.9038         estimate D2E/DX2                !
 ! D141  D(53,37,38,44)         -0.0307         estimate D2E/DX2                !
 ! D142  D(37,38,39,40)          0.0035         estimate D2E/DX2                !
 ! D143  D(37,38,39,43)        179.9843         estimate D2E/DX2                !
 ! D144  D(44,38,39,40)        179.9443         estimate D2E/DX2                !
 ! D145  D(44,38,39,43)         -0.0749         estimate D2E/DX2                !
 ! D146  D(37,38,44,45)         -0.1666         estimate D2E/DX2                !
 ! D147  D(37,38,44,52)        179.8277         estimate D2E/DX2                !
 ! D148  D(39,38,44,45)        179.9004         estimate D2E/DX2                !
 ! D149  D(39,38,44,52)         -0.1053         estimate D2E/DX2                !
 ! D150  D(38,39,40,35)          0.017          estimate D2E/DX2                !
 ! D151  D(38,39,40,41)        179.9651         estimate D2E/DX2                !
 ! D152  D(43,39,40,35)       -179.9659         estimate D2E/DX2                !
 ! D153  D(43,39,40,41)         -0.0178         estimate D2E/DX2                !
 ! D154  D(38,39,43,42)       -179.9796         estimate D2E/DX2                !
 ! D155  D(40,39,43,42)          0.0026         estimate D2E/DX2                !
 ! D156  D(35,40,41,42)        179.9679         estimate D2E/DX2                !
 ! D157  D(39,40,41,42)          0.0234         estimate D2E/DX2                !
 ! D158  D(40,41,42,43)         -0.0198         estimate D2E/DX2                !
 ! D159  D(41,42,43,39)          0.0098         estimate D2E/DX2                !
 ! D160  D(38,44,45,46)         -0.0218         estimate D2E/DX2                !
 ! D161  D(38,44,45,48)        179.9877         estimate D2E/DX2                !
 ! D162  D(52,44,45,46)        179.984          estimate D2E/DX2                !
 ! D163  D(52,44,45,48)         -0.0065         estimate D2E/DX2                !
 ! D164  D(44,45,48,49)         -0.0248         estimate D2E/DX2                !
 ! D165  D(44,45,48,51)        179.9747         estimate D2E/DX2                !
 ! D166  D(46,45,48,49)        179.9838         estimate D2E/DX2                !
 ! D167  D(46,45,48,51)         -0.0167         estimate D2E/DX2                !
 ! D168  D(45,48,49,50)        179.9889         estimate D2E/DX2                !
 ! D169  D(51,48,49,50)         -0.0106         estimate D2E/DX2                !
 ! D170  D(7,59,60,61)         178.554          estimate D2E/DX2                !
 ! D171  D(7,59,60,73)          -0.9194         estimate D2E/DX2                !
 ! D172  D(64,59,60,61)         -0.3325         estimate D2E/DX2                !
 ! D173  D(64,59,60,73)       -179.8058         estimate D2E/DX2                !
 ! D174  D(7,59,64,63)        -179.5697         estimate D2E/DX2                !
 ! D175  D(7,59,64,65)           0.6312         estimate D2E/DX2                !
 ! D176  D(60,59,64,63)         -0.6853         estimate D2E/DX2                !
 ! D177  D(60,59,64,65)        179.5156         estimate D2E/DX2                !
 ! D178  D(59,60,61,62)          0.9825         estimate D2E/DX2                !
 ! D179  D(59,60,61,72)       -179.6949         estimate D2E/DX2                !
 ! D180  D(73,60,61,62)       -179.5445         estimate D2E/DX2                !
 ! D181  D(73,60,61,72)         -0.2219         estimate D2E/DX2                !
 ! D182  D(60,61,62,63)         -0.6136         estimate D2E/DX2                !
 ! D183  D(60,61,62,67)        179.6217         estimate D2E/DX2                !
 ! D184  D(72,61,62,63)       -179.9216         estimate D2E/DX2                !
 ! D185  D(72,61,62,67)          0.3137         estimate D2E/DX2                !
 ! D186  D(61,62,63,64)         -0.3929         estimate D2E/DX2                !
 ! D187  D(61,62,63,66)       -179.3553         estimate D2E/DX2                !
 ! D188  D(67,62,63,64)        179.3927         estimate D2E/DX2                !
 ! D189  D(67,62,63,66)          0.4302         estimate D2E/DX2                !
 ! D190  D(61,62,67,68)          0.0663         estimate D2E/DX2                !
 ! D191  D(63,62,67,68)       -179.7055         estimate D2E/DX2                !
 ! D192  D(62,63,64,59)          1.0526         estimate D2E/DX2                !
 ! D193  D(62,63,64,65)       -179.149          estimate D2E/DX2                !
 ! D194  D(66,63,64,59)        179.987          estimate D2E/DX2                !
 ! D195  D(66,63,64,65)         -0.2146         estimate D2E/DX2                !
 ! D196  D(62,67,68,69)        -61.5346         estimate D2E/DX2                !
 ! D197  D(62,67,68,70)         61.035          estimate D2E/DX2                !
 ! D198  D(62,67,68,71)        179.7499         estimate D2E/DX2                !
 ! D199  D(6,74,75,3)            1.0712         estimate D2E/DX2                !
 ! D200  D(6,74,75,76)        -179.9563         estimate D2E/DX2                !
 ! D201  D(77,74,75,3)        -179.1243         estimate D2E/DX2                !
 ! D202  D(77,74,75,76)         -0.1518         estimate D2E/DX2                !
 --------------------------------------------------------------------------------
 Trust Radius=3.00D-01 FncErr=1.00D-07 GrdErr=1.00D-06
 Number of steps in this run=    444 maximum allowed number of steps=    492.
 GradGradGradGradGradGradGradGradGradGradGradGradGradGradGradGradGradGrad

 Stoichiometry    C42H28N4O4S4
 Framework group  C1[X(C42H28N4O4S4)]
 Deg. of freedom   240
 Full point group                 C1      NOp   1
 Largest Abelian subgroup         C1      NOp   1
 Largest concise Abelian subgroup C1      NOp   1
                         Standard orientation:                         
 ---------------------------------------------------------------------
 Center     Atomic      Atomic             Coordinates (Angstroms)
 Number     Number       Type             X           Y           Z
 ---------------------------------------------------------------------
      1          6           0       -8.182487    7.128568   -1.105953
      2          8           0       -7.424227    6.343120   -0.197444
      3          6           0       -7.594299    4.990534   -0.210206
      4          6           0       -8.469618    4.302920   -1.054202
      5          6           0       -8.556066    2.912758   -0.982790
      6          6           0       -7.794556    2.189376   -0.065242
      7          7           0       -7.914267    0.769334    0.020459
      8          6           0       -6.774216   -0.050771    0.005910
      9          6           0       -6.768593   -1.297194    0.659475
     10          6           0       -5.644102   -2.104499    0.641031
     11          6           0       -4.467692   -1.716233   -0.024144
     12          6           0       -4.478614   -0.467096   -0.667243
     13          6           0       -5.599876    0.346473   -0.658344
     14          1           0       -5.576908    1.293575   -1.181667
     15          1           0       -3.602711   -0.138034   -1.215670
     16          6           0       -3.298009   -2.590422   -0.040351
     17         16           0       -1.679247   -1.948306   -0.237981
     18          6           0       -0.956467   -3.542922   -0.138653
     19          6           0       -1.937570   -4.494386    0.044753
     20          6           0       -3.244337   -3.961437    0.093471
     21          1           0       -4.130751   -4.571350    0.204916
     22          1           0       -1.716499   -5.548000    0.153267
     23          6           0        0.466090   -3.755461   -0.253515
     24         16           0        1.625967   -2.489340    0.090960
     25          6           0        2.982405   -3.542881   -0.263590
     26          6           0        2.526680   -4.802500   -0.602800
     27          6           0        1.123658   -4.920823   -0.599690
     28          1           0        0.598595   -5.824193   -0.878894
     29          1           0        3.192024   -5.607489   -0.884805
     30          6           0        4.348203   -3.095277   -0.180959
     31          6           0        5.489847   -3.875750   -0.107659
     32          6           0        6.681322   -3.134897   -0.049206
     33          6           0        6.495056   -1.761727   -0.065502
     34         16           0        4.773393   -1.400692   -0.180140
     35          6           0        7.470840   -0.700054   -0.004172
     36          6           0        7.110588    0.645469    0.018098
     37          6           0        8.027128    1.709041    0.075048
     38          6           0        9.404895    1.522915    0.116380
     39          6           0        9.839338    0.149149    0.096587
     40          6           0        8.893835   -0.951326    0.037490
     41          7           0        9.486622   -2.145534    0.026726
     42         16           0       11.103043   -1.887273    0.087207
     43          7           0       11.109838   -0.250030    0.128721
     44          6           0       10.416144    2.547404    0.177016
     45          6           0       10.318038    3.907627    0.206239
     46          6           0        9.086736    4.624554    0.179205
     47          7           0        8.074009    5.181561    0.156275
     48          6           0       11.527344    4.770239    0.270304
     49          8           0       12.682594    4.060852    0.295141
     50          1           0       13.395218    4.714294    0.336154
     51          8           0       11.502773    5.975544    0.297992
     52          1           0       11.429221    2.163911    0.203953
     53          1           0        7.621846    2.710797    0.088106
     54          1           0        6.059098    0.905844   -0.006957
     55          1           0        7.664200   -3.574760    0.016447
     56          1           0        5.457693   -4.956156   -0.073146
     57          1           0       -5.665615   -3.041239    1.185874
     58          1           0       -7.649607   -1.620623    1.198724
     59          6           0       -9.220243    0.201134    0.115168
     60          6           0      -10.139608    0.682707    1.047013
     61          6           0      -11.428031    0.154911    1.127792
     62          6           0      -11.808286   -0.887709    0.279495
     63          6           0      -10.887142   -1.380914   -0.653708
     64          6           0       -9.616649   -0.837159   -0.741459
     65          1           0       -8.917672   -1.217857   -1.476612
     66          1           0      -11.199291   -2.182431   -1.312207
     67          8           0      -13.035193   -1.482953    0.276218
     68          6           0      -14.013089   -1.020418    1.196578
     69          1           0      -13.687246   -1.158105    2.233800
     70          1           0      -14.254822    0.035405    1.029631
     71          1           0      -14.900545   -1.624742    1.016261
     72          1           0      -12.114575    0.557814    1.860159
     73          1           0       -9.849997    1.486332    1.713561
     74          6           0       -6.927688    2.890499    0.786592
     75          6           0       -6.820574    4.268759    0.708116
     76          1           0       -6.152769    4.816060    1.362263
     77          1           0       -6.334436    2.344841    1.510642
     78          1           0       -9.232054    2.385586   -1.645441
     79          1           0       -9.078993    4.830121   -1.775834
     80          1           0       -7.894368    8.161501   -0.918177
     81          1           0       -7.953658    6.873436   -2.146840
     82          1           0       -9.258874    7.016340   -0.932988
 ---------------------------------------------------------------------
 Rotational constants (GHZ):      0.0651937      0.0099802      0.0087139
 Standard basis: 6-311G(d,p) (5D, 7F)
 There are  1226 symmetry adapted cartesian basis functions of A   symmetry.
 There are  1172 symmetry adapted basis functions of A   symmetry.
  1172 basis functions,  2008 primitive gaussians,  1226 cartesian basis functions
   202 alpha electrons      202 beta electrons
       nuclear repulsion energy      6545.1771954336 Hartrees.
 NAtoms=   82 NActive=   82 NUniq=   82 SFac= 1.00D+00 NAtFMM=   60 NAOKFM=T Big=T
 Integral buffers will be    131072 words long.
 Regular integral format.
 Two-electron integral symmetry is turned on.
 One-electron integrals computed using PRISM.
 NBasis=  1172 RedAO= T EigKep=  1.18D-04  NBF=  1172
 NBsUse=  1172 1.00D-06 EigRej= -1.00D+00 NBFU=  1172
 ExpMin= 7.71D-02 ExpMax= 9.34D+04 ExpMxC= 3.17D+03 IAcc=2 IRadAn=         4 AccDes= 0.00D+00
 Harris functional with IExCor=  402 and IRadAn=       4 diagonalized for initial guess.
 HarFok:  IExCor=  402 AccDes= 0.00D+00 IRadAn=         4 IDoV= 1 UseB2=F ITyADJ=14
 ICtDFT=  3500011 ScaDFX=  1.000000  1.000000  1.000000  1.000000
 FoFCou: FMM=F IPFlag=           0 FMFlag=      100000 FMFlg1=        2001
         NFxFlg=           0 DoJE=T BraDBF=F KetDBF=T FulRan=T
         wScrn=  0.000000 ICntrl=     500 IOpCl=  0 I1Cent=   200000004 NGrid=           0
         NMat0=    1 NMatS0=      1 NMatT0=    0 NMatD0=    1 NMtDS0=    0 NMtDT0=    0
 Petite list used in FoFCou.
 Requested convergence on RMS density matrix=1.00D-08 within 128 cycles.
 Requested convergence on MAX density matrix=1.00D-06.
 Requested convergence on             energy=1.00D-06.
 No special actions if energy rises.
 Integral accuracy reduced to 1.0D-05 until final iterations.
 Initial convergence to 1.0D-05 achieved.  Increase integral accuracy.
 SCF Done:  E(RB3LYP) =  -3730.54296709     A.U. after   18 cycles
            NFock= 18  Conv=0.39D-08     -V/T= 2.0028
 DoSCS=F DFT=T ScalE2(SS,OS)=  1.000000  1.000000
 ExpMin= 7.71D-02 ExpMax= 9.34D+04 ExpMxC= 3.17D+03 IAcc=3 IRadAn=         5 AccDes= 0.00D+00
 HarFok:  IExCor=  205 AccDes= 0.00D+00 IRadAn=         5 IDoV=-2 UseB2=F ITyADJ=14
 ICtDFT= 12500011 ScaDFX=  1.000000  1.000000  1.000000  1.000000
 Range of M.O.s used for correlation:    71  1172
 NBasis=  1172 NAE=   202 NBE=   202 NFC=    70 NFV=     0
 NROrb=   1102 NOA=   132 NOB=   132 NVA=   970 NVB=   970

 **** Warning!!: The largest alpha MO coefficient is  0.15844652D+02


 **** Warning!!: The smallest alpha delta epsilon is  0.57186475D-01

 Would need an additional        708583800000 words for in-memory AO integral storage.
 Orbital symmetries:
       Occupied  (A) (A) (A) (A) (A) (A) (A) (A) (A) (A) (A) (A)
                 (A) (A) (A) (A) (A) (A) (A) (A) (A) (A) (A) (A)
                 (A) (A) (A) (A) (A) (A) (A) (A) (A) (A) (A) (A)
                 (A) (A) (A) (A) (A) (A) (A) (A) (A) (A) (A) (A)
                 (A) (A) (A) (A) (A) (A) (A) (A) (A) (A) (A) (A)
                 (A) (A) (A) (A) (A) (A) (A) (A) (A) (A) (A) (A)
                 (A) (A) (A) (A) (A) (A) (A) (A) (A) (A) (A) (A)
                 (A) (A) (A) (A) (A) (A) (A) (A) (A) (A) (A) (A)
                 (A) (A) (A) (A) (A) (A) (A) (A) (A) (A) (A) (A)
                 (A) (A) (A) (A) (A) (A) (A) (A) (A) (A) (A) (A)
                 (A) (A) (A) (A) (A) (A) (A) (A) (A) (A) (A) (A)
                 (A) (A) (A) (A) (A) (A) (A) (A) (A) (A) (A) (A)
                 (A) (A) (A) (A) (A) (A) (A) (A) (A) (A) (A) (A)
                 (A) (A) (A) (A) (A) (A) (A) (A) (A) (A) (A) (A)
                 (A) (A) (A) (A) (A) (A) (A) (A) (A) (A) (A) (A)
                 (A) (A) (A) (A) (A) (A) (A) (A) (A) (A) (A) (A)
                 (A) (A) (A) (A) (A) (A) (A) (A) (A) (A)
       Virtual   (A) (A) (A) (A) (A) (A) (A) (A) (A) (A) (A) (A)
                 (A) (A) (A) (A) (A) (A) (A) (A) (A) (A) (A) (A)
                 (A) (A) (A) (A) (A) (A) (A) (A) (A) (A) (A) (A)
                 (A) (A) (A) (A) (A) (A) (A) (A) (A) (A) (A) (A)
                 (A) (A) (A) (A) (A) (A) (A) (A) (A) (A) (A) (A)
                 (A) (A) (A) (A) (A) (A) (A) (A) (A) (A) (A) (A)
                 (A) (A) (A) (A) (A) (A) (A) (A) (A) (A) (A) (A)
                 (A) (A) (A) (A) (A) (A) (A) (A) (A) (A) (A) (A)
                 (A) (A) (A) (A) (A) (A) (A) (A) (A) (A) (A) (A)
                 (A) (A) (A) (A) (A) (A) (A) (A) (A) (A) (A) (A)
                 (A) (A) (A) (A) (A) (A) (A) (A) (A) (A) (A) (A)
                 (A) (A) (A) (A) (A) (A) (A) (A) (A) (A) (A) (A)
                 (A) (A) (A) (A) (A) (A) (A) (A) (A) (A) (A) (A)
                 (A) (A) (A) (A) (A) (A) (A) (A) (A) (A) (A) (A)
                 (A) (A) (A) (A) (A) (A) (A) (A) (A) (A) (A) (A)
                 (A) (A) (A) (A) (A) (A) (A) (A) (A) (A) (A) (A)
                 (A) (A) (A) (A) (A) (A) (A) (A) (A) (A) (A) (A)
                 (A) (A) (A) (A) (A) (A) (A) (A) (A) (A) (A) (A)
                 (A) (A) (A) (A) (A) (A) (A) (A) (A) (A) (A) (A)
                 (A) (A) (A) (A) (A) (A) (A) (A) (A) (A) (A) (A)
                 (A) (A) (A) (A) (A) (A) (A) (A) (A) (A) (A) (A)
                 (A) (A) (A) (A) (A) (A) (A) (A) (A) (A) (A) (A)
                 (A) (A) (A) (A) (A) (A) (A) (A) (A) (A) (A) (A)
                 (A) (A) (A) (A) (A) (A) (A) (A) (A) (A) (A) (A)
                 (A) (A) (A) (A) (A) (A) (A) (A) (A) (A) (A) (A)
                 (A) (A) (A) (A) (A) (A) (A) (A) (A) (A) (A) (A)
                 (A) (A) (A) (A) (A) (A) (A) (A) (A) (A) (A) (A)
                 (A) (A) (A) (A) (A) (A) (A) (A) (A) (A) (A) (A)
                 (A) (A) (A) (A) (A) (A) (A) (A) (A) (A) (A) (A)
                 (A) (A) (A) (A) (A) (A) (A) (A) (A) (A) (A) (A)
                 (A) (A) (A) (A) (A) (A) (A) (A) (A) (A) (A) (A)
                 (A) (A) (A) (A) (A) (A) (A) (A) (A) (A) (A) (A)
                 (A) (A) (A) (A) (A) (A) (A) (A) (A) (A) (A) (A)
                 (A) (A) (A) (A) (A) (A) (A) (A) (A) (A) (A) (A)
                 (A) (A) (A) (A) (A) (A) (A) (A) (A) (A) (A) (A)
                 (A) (A) (A) (A) (A) (A) (A) (A) (A) (A) (A) (A)
                 (A) (A) (A) (A) (A) (A) (A) (A) (A) (A) (A) (A)
                 (A) (A) (A) (A) (A) (A) (A) (A) (A) (A) (A) (A)
                 (A) (A) (A) (A) (A) (A) (A) (A) (A) (A) (A) (A)
                 (A) (A) (A) (A) (A) (A) (A) (A) (A) (A) (A) (A)
                 (A) (A) (A) (A) (A) (A) (A) (A) (A) (A) (A) (A)
                 (A) (A) (A) (A) (A) (A) (A) (A) (A) (A) (A) (A)
                 (A) (A) (A) (A) (A) (A) (A) (A) (A) (A) (A) (A)
                 (A) (A) (A) (A) (A) (A) (A) (A) (A) (A) (A) (A)
                 (A) (A) (A) (A) (A) (A) (A) (A) (A) (A) (A) (A)
                 (A) (A) (A) (A) (A) (A) (A) (A) (A) (A) (A) (A)
                 (A) (A) (A) (A) (A) (A) (A) (A) (A) (A) (A) (A)
                 (A) (A) (A) (A) (A) (A) (A) (A) (A) (A) (A) (A)
                 (A) (A) (A) (A) (A) (A) (A) (A) (A) (A) (A) (A)
                 (A) (A) (A) (A) (A) (A) (A) (A) (A) (A) (A) (A)
                 (A) (A) (A) (A) (A) (A) (A) (A) (A) (A) (A) (A)
                 (A) (A) (A) (A) (A) (A) (A) (A) (A) (A) (A) (A)
                 (A) (A) (A) (A) (A) (A) (A) (A) (A) (A) (A) (A)
                 (A) (A) (A) (A) (A) (A) (A) (A) (A) (A) (A) (A)
                 (A) (A) (A) (A) (A) (A) (A) (A) (A) (A) (A) (A)
                 (A) (A) (A) (A) (A) (A) (A) (A) (A) (A) (A) (A)
                 (A) (A) (A) (A) (A) (A) (A) (A) (A) (A) (A) (A)
                 (A) (A) (A) (A) (A) (A) (A) (A) (A) (A) (A) (A)
                 (A) (A) (A) (A) (A) (A) (A) (A) (A) (A) (A) (A)
                 (A) (A) (A) (A) (A) (A) (A) (A) (A) (A) (A) (A)
                 (A) (A) (A) (A) (A) (A) (A) (A) (A) (A) (A) (A)
                 (A) (A) (A) (A) (A) (A) (A) (A) (A) (A) (A) (A)
                 (A) (A) (A) (A) (A) (A) (A) (A) (A) (A) (A) (A)
                 (A) (A) (A) (A) (A) (A) (A) (A) (A) (A) (A) (A)
                 (A) (A) (A) (A) (A) (A) (A) (A) (A) (A) (A) (A)
                 (A) (A) (A) (A) (A) (A) (A) (A) (A) (A) (A) (A)
                 (A) (A) (A) (A) (A) (A) (A) (A) (A) (A) (A) (A)
                 (A) (A) (A) (A) (A) (A) (A) (A) (A) (A) (A) (A)
                 (A) (A) (A) (A) (A) (A) (A) (A) (A) (A) (A) (A)
                 (A) (A) (A) (A) (A) (A) (A) (A) (A) (A) (A) (A)
                 (A) (A) (A) (A) (A) (A) (A) (A) (A) (A) (A) (A)
                 (A) (A) (A) (A) (A) (A) (A) (A) (A) (A) (A) (A)
                 (A) (A) (A) (A) (A) (A) (A) (A) (A) (A) (A) (A)
                 (A) (A) (A) (A) (A) (A) (A) (A) (A) (A) (A) (A)
                 (A) (A) (A) (A) (A) (A) (A) (A) (A) (A) (A) (A)
                 (A) (A) (A) (A) (A) (A) (A) (A) (A) (A) (A) (A)
                 (A) (A) (A) (A) (A) (A) (A) (A) (A) (A) (A) (A)
                 (A) (A) (A) (A) (A) (A) (A) (A) (A) (A) (A) (A)
                 (A) (A) (A) (A) (A) (A) (A) (A) (A) (A) (A) (A)
                 (A) (A) (A) (A) (A) (A) (A) (A) (A) (A) (A) (A)
                 (A) (A) (A) (A) (A) (A) (A) (A) (A) (A)
     8 initial guesses have been made.
 Convergence on wavefunction:    0.000001000000000
 Iteration     1 Dimension     8 NMult     0 NNew      8
 CISAX will form     8 AO SS matrices at one time.
 Iteration     2 Dimension    12 NMult     8 NNew      4
 Iteration     3 Dimension    16 NMult    12 NNew      4
 Iteration     4 Dimension    20 NMult    16 NNew      4
 Iteration     5 Dimension    24 NMult    20 NNew      4
 Iteration     6 Dimension    28 NMult    24 NNew      4
 Iteration     7 Dimension    32 NMult    28 NNew      4
 Iteration     8 Dimension    36 NMult    32 NNew      4
 Iteration     9 Dimension    40 NMult    36 NNew      4
 Iteration    10 Dimension    44 NMult    40 NNew      4
 Iteration    11 Dimension    48 NMult    44 NNew      4
 ***********************************************************************
 Excited states from <AA,BB:AA,BB> singles matrix:
 ***********************************************************************
 
 Ground to excited state transition densities written to RWF  633
 Ground to excited state transition electric dipole moments (Au):
       state          X           Y           Z        Dip. S.      Osc.
         1        -3.0775     -0.4975     -0.0367      9.7197      0.3298
 Ground to excited state transition velocity dipole moments (Au):
       state          X           Y           Z        Dip. S.      Osc.
         1         0.1538      0.0251      0.0021      0.0243      0.3183
 Ground to excited state transition magnetic dipole moments (Au):
       state          X           Y           Z
         1         0.0130     -0.0949      1.7788
 Ground to excited state transition velocity quadrupole moments (Au):
       state          XX          YY          ZZ          XY          XZ          YZ
         1         0.9108     -0.0147     -0.0129      0.4273      0.0378      0.0130
 <0|del|b> * <b|rxdel|0> + <0|del|b> * <b|delr+rdel|0>
 Rotatory Strengths (R) in cgs (10**-40 erg-esu-cm/Gauss)
       state          XX          YY          ZZ    R(velocity)    E-M Angle
         1         8.7911     47.3108     -9.9584     15.3812       89.31
 1/2[<0|r|b>*<b|rxdel|0> + (<0|rxdel|b>*<b|r|0>)*]
 Rotatory Strengths (R) in cgs (10**-40 erg-esu-cm/Gauss)
       state          XX          YY          ZZ     R(length)
         1        28.2511    -33.3987     46.2118     13.6881
  1/2[<0|del|b>*<b|r|0> + (<0|r|b>*<b|del|0>)*] (Au)
       state          X           Y           Z        Dip. S.   Osc.(frdel)
         1        -0.4734     -0.0125     -0.0001      0.4860      0.3240

 Excitation energies and oscillator strengths:
 
 Excited State   1:      Singlet-A      1.3851 eV  895.13 nm  f=0.3298  <S**2>=0.000
     202 -> 203        0.70693
 This state for optimization and/or second-order correction.
 Total Energy, E(TD-HF/TD-KS) =  -3730.49206570    
 Copying the excited state density for this state as the 1-particle RhoCI density.
 SavETr:  write IOETrn=   770 NScale= 10 NData=  16 NLR=1 NState=    1 LETran=      28.
          IDoAtm=11111111111111111111111111111111111111111111111111
          IDoAtm=11111111111111111111111111111111
          Differentiating once with respect to electric field.
                with respect to dipole field.
          Differentiating once with respect to nuclear coordinates.
          There are     1 degrees of freedom in the 1st order CPHF.  IDoFFX=0 NUNeed=     1.
 LinEq1:  Iter=  0 NonCon=     1 RMS=6.20D-03 Max=2.14D+00 NDo=     1
 AX will form     1 AO Fock derivatives at one time.
 LinEq1:  Iter=  1 NonCon=     1 RMS=4.12D-03 Max=8.37D-01 NDo=     1
 LinEq1:  Iter=  2 NonCon=     1 RMS=2.65D-03 Max=3.61D-01 NDo=     1
 LinEq1:  Iter=  3 NonCon=     1 RMS=1.81D-03 Max=1.84D-01 NDo=     1
 LinEq1:  Iter=  4 NonCon=     1 RMS=1.36D-03 Max=1.64D-01 NDo=     1
 LinEq1:  Iter=  5 NonCon=     1 RMS=9.54D-04 Max=1.10D-01 NDo=     1
 LinEq1:  Iter=  6 NonCon=     1 RMS=7.65D-04 Max=1.72D-01 NDo=     1
 LinEq1:  Iter=  7 NonCon=     1 RMS=5.62D-04 Max=5.50D-02 NDo=     1
 LinEq1:  Iter=  8 NonCon=     1 RMS=5.08D-04 Max=5.53D-02 NDo=     1
 LinEq1:  Iter=  9 NonCon=     1 RMS=4.02D-04 Max=3.59D-02 NDo=     1
 LinEq1:  Iter= 10 NonCon=     1 RMS=4.05D-04 Max=5.77D-02 NDo=     1
 LinEq1:  Iter= 11 NonCon=     1 RMS=3.06D-04 Max=3.34D-02 NDo=     1
 LinEq1:  Iter= 12 NonCon=     1 RMS=2.32D-04 Max=3.04D-02 NDo=     1
 LinEq1:  Iter= 13 NonCon=     1 RMS=1.38D-04 Max=1.24D-02 NDo=     1
 LinEq1:  Iter= 14 NonCon=     1 RMS=1.00D-04 Max=9.55D-03 NDo=     1
 LinEq1:  Iter= 15 NonCon=     1 RMS=8.28D-05 Max=8.80D-03 NDo=     1
 LinEq1:  Iter= 16 NonCon=     1 RMS=4.90D-05 Max=5.39D-03 NDo=     1
 LinEq1:  Iter= 17 NonCon=     1 RMS=4.08D-05 Max=3.69D-03 NDo=     1
 LinEq1:  Iter= 18 NonCon=     1 RMS=2.92D-05 Max=2.89D-03 NDo=     1
 LinEq1:  Iter= 19 NonCon=     1 RMS=1.84D-05 Max=1.27D-03 NDo=     1
 LinEq1:  Iter= 20 NonCon=     1 RMS=1.47D-05 Max=9.61D-04 NDo=     1
 LinEq1:  Iter= 21 NonCon=     1 RMS=9.93D-06 Max=7.14D-04 NDo=     1
 LinEq1:  Iter= 22 NonCon=     1 RMS=8.18D-06 Max=6.68D-04 NDo=     1
 LinEq1:  Iter= 23 NonCon=     1 RMS=6.34D-06 Max=3.58D-04 NDo=     1
 LinEq1:  Iter= 24 NonCon=     1 RMS=4.01D-06 Max=2.91D-04 NDo=     1
 LinEq1:  Iter= 25 NonCon=     1 RMS=2.77D-06 Max=2.56D-04 NDo=     1
 LinEq1:  Iter= 26 NonCon=     1 RMS=1.66D-06 Max=1.01D-04 NDo=     1
 LinEq1:  Iter= 27 NonCon=     1 RMS=1.28D-06 Max=9.86D-05 NDo=     1
 LinEq1:  Iter= 28 NonCon=     1 RMS=6.59D-07 Max=4.21D-05 NDo=     1
 LinEq1:  Iter= 29 NonCon=     1 RMS=4.55D-07 Max=4.60D-05 NDo=     1
 LinEq1:  Iter= 30 NonCon=     1 RMS=2.73D-07 Max=1.57D-05 NDo=     1
 LinEq1:  Iter= 31 NonCon=     1 RMS=1.84D-07 Max=1.76D-05 NDo=     1
 LinEq1:  Iter= 32 NonCon=     1 RMS=1.12D-07 Max=6.90D-06 NDo=     1
 LinEq1:  Iter= 33 NonCon=     1 RMS=6.12D-08 Max=4.40D-06 NDo=     1
 LinEq1:  Iter= 34 NonCon=     1 RMS=3.92D-08 Max=3.65D-06 NDo=     1
 LinEq1:  Iter= 35 NonCon=     1 RMS=2.34D-08 Max=1.56D-06 NDo=     1
 LinEq1:  Iter= 36 NonCon=     1 RMS=1.51D-08 Max=8.85D-07 NDo=     1
 LinEq1:  Iter= 37 NonCon=     1 RMS=7.24D-09 Max=3.83D-07 NDo=     1
 LinEq1:  Iter= 38 NonCon=     1 RMS=4.73D-09 Max=2.58D-07 NDo=     1
 LinEq1:  Iter= 39 NonCon=     1 RMS=2.62D-09 Max=1.49D-07 NDo=     1
 LinEq1:  Iter= 40 NonCon=     1 RMS=1.60D-09 Max=8.13D-08 NDo=     1
 LinEq1:  Iter= 41 NonCon=     1 RMS=8.60D-10 Max=6.31D-08 NDo=     1
 LinEq1:  Iter= 42 NonCon=     1 RMS=5.30D-10 Max=2.77D-08 NDo=     1
 LinEq1:  Iter= 43 NonCon=     1 RMS=3.10D-10 Max=2.67D-08 NDo=     1
 LinEq1:  Iter= 44 NonCon=     1 RMS=1.56D-10 Max=1.16D-08 NDo=     1
 LinEq1:  Iter= 45 NonCon=     1 RMS=8.79D-11 Max=5.49D-09 NDo=     1
 LinEq1:  Iter= 46 NonCon=     1 RMS=4.65D-11 Max=2.58D-09 NDo=     1
 LinEq1:  Iter= 47 NonCon=     1 RMS=3.27D-11 Max=2.10D-09 NDo=     1
 LinEq1:  Iter= 48 NonCon=     1 RMS=1.71D-11 Max=1.21D-09 NDo=     1
 LinEq1:  Iter= 49 NonCon=     0 RMS=9.48D-12 Max=7.03D-10 NDo=     1
 Linear equations converged to 1.000D-10 1.000D-09 after    49 iterations.
 End of Minotr F.D. properties file   721 does not exist.
 End of Minotr F.D. properties file   722 does not exist.
 End of Minotr F.D. properties file   788 does not exist.

 **********************************************************************

            Population analysis using the SCF density.

 **********************************************************************

 Orbital symmetries:
       Occupied  (A) (A) (A) (A) (A) (A) (A) (A) (A) (A) (A) (A)
                 (A) (A) (A) (A) (A) (A) (A) (A) (A) (A) (A) (A)
                 (A) (A) (A) (A) (A) (A) (A) (A) (A) (A) (A) (A)
                 (A) (A) (A) (A) (A) (A) (A) (A) (A) (A) (A) (A)
                 (A) (A) (A) (A) (A) (A) (A) (A) (A) (A) (A) (A)
                 (A) (A) (A) (A) (A) (A) (A) (A) (A) (A) (A) (A)
                 (A) (A) (A) (A) (A) (A) (A) (A) (A) (A) (A) (A)
                 (A) (A) (A) (A) (A) (A) (A) (A) (A) (A) (A) (A)
                 (A) (A) (A) (A) (A) (A) (A) (A) (A) (A) (A) (A)
                 (A) (A) (A) (A) (A) (A) (A) (A) (A) (A) (A) (A)
                 (A) (A) (A) (A) (A) (A) (A) (A) (A) (A) (A) (A)
                 (A) (A) (A) (A) (A) (A) (A) (A) (A) (A) (A) (A)
                 (A) (A) (A) (A) (A) (A) (A) (A) (A) (A) (A) (A)
                 (A) (A) (A) (A) (A) (A) (A) (A) (A) (A) (A) (A)
                 (A) (A) (A) (A) (A) (A) (A) (A) (A) (A) (A) (A)
                 (A) (A) (A) (A) (A) (A) (A) (A) (A) (A) (A) (A)
                 (A) (A) (A) (A) (A) (A) (A) (A) (A) (A)
       Virtual   (A) (A) (A) (A) (A) (A) (A) (A) (A) (A) (A) (A)
                 (A) (A) (A) (A) (A) (A) (A) (A) (A) (A) (A) (A)
                 (A) (A) (A) (A) (A) (A) (A) (A) (A) (A) (A) (A)
                 (A) (A) (A) (A) (A) (A) (A) (A) (A) (A) (A) (A)
                 (A) (A) (A) (A) (A) (A) (A) (A) (A) (A) (A) (A)
                 (A) (A) (A) (A) (A) (A) (A) (A) (A) (A) (A) (A)
                 (A) (A) (A) (A) (A) (A) (A) (A) (A) (A) (A) (A)
                 (A) (A) (A) (A) (A) (A) (A) (A) (A) (A) (A) (A)
                 (A) (A) (A) (A) (A) (A) (A) (A) (A) (A) (A) (A)
                 (A) (A) (A) (A) (A) (A) (A) (A) (A) (A) (A) (A)
                 (A) (A) (A) (A) (A) (A) (A) (A) (A) (A) (A) (A)
                 (A) (A) (A) (A) (A) (A) (A) (A) (A) (A) (A) (A)
                 (A) (A) (A) (A) (A) (A) (A) (A) (A) (A) (A) (A)
                 (A) (A) (A) (A) (A) (A) (A) (A) (A) (A) (A) (A)
                 (A) (A) (A) (A) (A) (A) (A) (A) (A) (A) (A) (A)
                 (A) (A) (A) (A) (A) (A) (A) (A) (A) (A) (A) (A)
                 (A) (A) (A) (A) (A) (A) (A) (A) (A) (A) (A) (A)
                 (A) (A) (A) (A) (A) (A) (A) (A) (A) (A) (A) (A)
                 (A) (A) (A) (A) (A) (A) (A) (A) (A) (A) (A) (A)
                 (A) (A) (A) (A) (A) (A) (A) (A) (A) (A) (A) (A)
                 (A) (A) (A) (A) (A) (A) (A) (A) (A) (A) (A) (A)
                 (A) (A) (A) (A) (A) (A) (A) (A) (A) (A) (A) (A)
                 (A) (A) (A) (A) (A) (A) (A) (A) (A) (A) (A) (A)
                 (A) (A) (A) (A) (A) (A) (A) (A) (A) (A) (A) (A)
                 (A) (A) (A) (A) (A) (A) (A) (A) (A) (A) (A) (A)
                 (A) (A) (A) (A) (A) (A) (A) (A) (A) (A) (A) (A)
                 (A) (A) (A) (A) (A) (A) (A) (A) (A) (A) (A) (A)
                 (A) (A) (A) (A) (A) (A) (A) (A) (A) (A) (A) (A)
                 (A) (A) (A) (A) (A) (A) (A) (A) (A) (A) (A) (A)
                 (A) (A) (A) (A) (A) (A) (A) (A) (A) (A) (A) (A)
                 (A) (A) (A) (A) (A) (A) (A) (A) (A) (A) (A) (A)
                 (A) (A) (A) (A) (A) (A) (A) (A) (A) (A) (A) (A)
                 (A) (A) (A) (A) (A) (A) (A) (A) (A) (A) (A) (A)
                 (A) (A) (A) (A) (A) (A) (A) (A) (A) (A) (A) (A)
                 (A) (A) (A) (A) (A) (A) (A) (A) (A) (A) (A) (A)
                 (A) (A) (A) (A) (A) (A) (A) (A) (A) (A) (A) (A)
                 (A) (A) (A) (A) (A) (A) (A) (A) (A) (A) (A) (A)
                 (A) (A) (A) (A) (A) (A) (A) (A) (A) (A) (A) (A)
                 (A) (A) (A) (A) (A) (A) (A) (A) (A) (A) (A) (A)
                 (A) (A) (A) (A) (A) (A) (A) (A) (A) (A) (A) (A)
                 (A) (A) (A) (A) (A) (A) (A) (A) (A) (A) (A) (A)
                 (A) (A) (A) (A) (A) (A) (A) (A) (A) (A) (A) (A)
                 (A) (A) (A) (A) (A) (A) (A) (A) (A) (A) (A) (A)
                 (A) (A) (A) (A) (A) (A) (A) (A) (A) (A) (A) (A)
                 (A) (A) (A) (A) (A) (A) (A) (A) (A) (A) (A) (A)
                 (A) (A) (A) (A) (A) (A) (A) (A) (A) (A) (A) (A)
                 (A) (A) (A) (A) (A) (A) (A) (A) (A) (A) (A) (A)
                 (A) (A) (A) (A) (A) (A) (A) (A) (A) (A) (A) (A)
                 (A) (A) (A) (A) (A) (A) (A) (A) (A) (A) (A) (A)
                 (A) (A) (A) (A) (A) (A) (A) (A) (A) (A) (A) (A)
                 (A) (A) (A) (A) (A) (A) (A) (A) (A) (A) (A) (A)
                 (A) (A) (A) (A) (A) (A) (A) (A) (A) (A) (A) (A)
                 (A) (A) (A) (A) (A) (A) (A) (A) (A) (A) (A) (A)
                 (A) (A) (A) (A) (A) (A) (A) (A) (A) (A) (A) (A)
                 (A) (A) (A) (A) (A) (A) (A) (A) (A) (A) (A) (A)
                 (A) (A) (A) (A) (A) (A) (A) (A) (A) (A) (A) (A)
                 (A) (A) (A) (A) (A) (A) (A) (A) (A) (A) (A) (A)
                 (A) (A) (A) (A) (A) (A) (A) (A) (A) (A) (A) (A)
                 (A) (A) (A) (A) (A) (A) (A) (A) (A) (A) (A) (A)
                 (A) (A) (A) (A) (A) (A) (A) (A) (A) (A) (A) (A)
                 (A) (A) (A) (A) (A) (A) (A) (A) (A) (A) (A) (A)
                 (A) (A) (A) (A) (A) (A) (A) (A) (A) (A) (A) (A)
                 (A) (A) (A) (A) (A) (A) (A) (A) (A) (A) (A) (A)
                 (A) (A) (A) (A) (A) (A) (A) (A) (A) (A) (A) (A)
                 (A) (A) (A) (A) (A) (A) (A) (A) (A) (A) (A) (A)
                 (A) (A) (A) (A) (A) (A) (A) (A) (A) (A) (A) (A)
                 (A) (A) (A) (A) (A) (A) (A) (A) (A) (A) (A) (A)
                 (A) (A) (A) (A) (A) (A) (A) (A) (A) (A) (A) (A)
                 (A) (A) (A) (A) (A) (A) (A) (A) (A) (A) (A) (A)
                 (A) (A) (A) (A) (A) (A) (A) (A) (A) (A) (A) (A)
                 (A) (A) (A) (A) (A) (A) (A) (A) (A) (A) (A) (A)
                 (A) (A) (A) (A) (A) (A) (A) (A) (A) (A) (A) (A)
                 (A) (A) (A) (A) (A) (A) (A) (A) (A) (A) (A) (A)
                 (A) (A) (A) (A) (A) (A) (A) (A) (A) (A) (A) (A)
                 (A) (A) (A) (A) (A) (A) (A) (A) (A) (A) (A) (A)
                 (A) (A) (A) (A) (A) (A) (A) (A) (A) (A) (A) (A)
                 (A) (A) (A) (A) (A) (A) (A) (A) (A) (A) (A) (A)
                 (A) (A) (A) (A) (A) (A) (A) (A) (A) (A) (A) (A)
                 (A) (A) (A) (A) (A) (A) (A) (A) (A) (A) (A) (A)
                 (A) (A) (A) (A) (A) (A) (A) (A) (A) (A) (A) (A)
                 (A) (A) (A) (A) (A) (A) (A) (A) (A) (A)
 The electronic state is 1-A.
 Alpha  occ. eigenvalues --  -88.95137 -88.89102 -88.89021 -88.88152 -19.17129
 Alpha  occ. eigenvalues --  -19.15673 -19.15552 -19.11215 -14.36382 -14.36141
 Alpha  occ. eigenvalues --  -14.34805 -14.30909 -10.31379 -10.24826 -10.24600
 Alpha  occ. eigenvalues --  -10.24000 -10.23906 -10.23661 -10.23253 -10.23115
 Alpha  occ. eigenvalues --  -10.23114 -10.23037 -10.22840 -10.22707 -10.22661
 Alpha  occ. eigenvalues --  -10.22372 -10.22079 -10.22071 -10.21689 -10.21546
 Alpha  occ. eigenvalues --  -10.21473 -10.21448 -10.20887 -10.20720 -10.20324
 Alpha  occ. eigenvalues --  -10.19502 -10.19334 -10.19262 -10.19095 -10.19094
 Alpha  occ. eigenvalues --  -10.18690 -10.18243 -10.18216 -10.18183 -10.18177
 Alpha  occ. eigenvalues --  -10.18163 -10.18144 -10.18131 -10.18126 -10.18043
 Alpha  occ. eigenvalues --  -10.17794 -10.17682 -10.17585 -10.17551  -8.03396
 Alpha  occ. eigenvalues --   -7.97759  -7.97665  -7.96800  -5.99810  -5.99229
 Alpha  occ. eigenvalues --   -5.99001  -5.94067  -5.93972  -5.93693  -5.93598
 Alpha  occ. eigenvalues --   -5.93316  -5.93224  -5.93102  -5.92731  -5.92368
 Alpha  occ. eigenvalues --   -1.11729  -1.07534  -1.07423  -1.04149  -1.02698
 Alpha  occ. eigenvalues --   -0.97277  -0.91965  -0.91484  -0.91194  -0.90389
 Alpha  occ. eigenvalues --   -0.89100  -0.88089  -0.86643  -0.86570  -0.84786
 Alpha  occ. eigenvalues --   -0.84027  -0.80633  -0.79120  -0.78446  -0.77487
 Alpha  occ. eigenvalues --   -0.77324  -0.76504  -0.76239  -0.76115  -0.75607
 Alpha  occ. eigenvalues --   -0.75029  -0.74832  -0.74048  -0.73489  -0.71226
 Alpha  occ. eigenvalues --   -0.70935  -0.69360  -0.68160  -0.66131  -0.65188
 Alpha  occ. eigenvalues --   -0.64140  -0.63634  -0.63359  -0.62599  -0.62181
 Alpha  occ. eigenvalues --   -0.61783  -0.60635  -0.60137  -0.59732  -0.58333
 Alpha  occ. eigenvalues --   -0.56948  -0.56109  -0.55108  -0.54970  -0.54834
 Alpha  occ. eigenvalues --   -0.54529  -0.53944  -0.53388  -0.53087  -0.53077
 Alpha  occ. eigenvalues --   -0.52245  -0.51226  -0.50273  -0.50060  -0.49898
 Alpha  occ. eigenvalues --   -0.48990  -0.48706  -0.48127  -0.47921  -0.47797
 Alpha  occ. eigenvalues --   -0.47447  -0.46634  -0.46279  -0.46267  -0.45907
 Alpha  occ. eigenvalues --   -0.45705  -0.45299  -0.44357  -0.43846  -0.43728
 Alpha  occ. eigenvalues --   -0.43423  -0.43300  -0.43125  -0.42947  -0.42708
 Alpha  occ. eigenvalues --   -0.42514  -0.42411  -0.42013  -0.41548  -0.41358
 Alpha  occ. eigenvalues --   -0.41173  -0.40611  -0.40285  -0.39891  -0.39684
 Alpha  occ. eigenvalues --   -0.39524  -0.39321  -0.39109  -0.39033  -0.39004
 Alpha  occ. eigenvalues --   -0.38393  -0.38067  -0.37857  -0.37407  -0.37077
 Alpha  occ. eigenvalues --   -0.36898  -0.36730  -0.36399  -0.35991  -0.35752
 Alpha  occ. eigenvalues --   -0.35292  -0.34460  -0.34189  -0.34000  -0.33866
 Alpha  occ. eigenvalues --   -0.33716  -0.33545  -0.33242  -0.32968  -0.31819
 Alpha  occ. eigenvalues --   -0.31667  -0.30806  -0.29466  -0.28965  -0.28644
 Alpha  occ. eigenvalues --   -0.27631  -0.27249  -0.27101  -0.26972  -0.26471
 Alpha  occ. eigenvalues --   -0.26384  -0.26062  -0.25021  -0.23942  -0.22955
 Alpha  occ. eigenvalues --   -0.20345  -0.18205
 Alpha virt. eigenvalues --   -0.12487  -0.08036  -0.07575  -0.04696  -0.03192
 Alpha virt. eigenvalues --   -0.02369  -0.01855  -0.01424  -0.01307  -0.01041
 Alpha virt. eigenvalues --   -0.00832  -0.00659   0.00131   0.01503   0.01634
 Alpha virt. eigenvalues --    0.01989   0.02140   0.02660   0.03604   0.04042
 Alpha virt. eigenvalues --    0.04070   0.04210   0.04461   0.04533   0.04549
 Alpha virt. eigenvalues --    0.05141   0.05431   0.05720   0.06318   0.06408
 Alpha virt. eigenvalues --    0.06837   0.07325   0.07418   0.07787   0.08002
 Alpha virt. eigenvalues --    0.08479   0.08611   0.09283   0.09760   0.10099
 Alpha virt. eigenvalues --    0.10162   0.10276   0.10550   0.10609   0.10681
 Alpha virt. eigenvalues --    0.11081   0.11343   0.12049   0.12143   0.12518
 Alpha virt. eigenvalues --    0.12931   0.13265   0.13510   0.13588   0.13611
 Alpha virt. eigenvalues --    0.13987   0.14431   0.14610   0.15031   0.15223
 Alpha virt. eigenvalues --    0.15589   0.15849   0.16661   0.16866   0.17269
 Alpha virt. eigenvalues --    0.17459   0.17721   0.18131   0.18614   0.18730
 Alpha virt. eigenvalues --    0.19844   0.20354   0.20785   0.20843   0.21031
 Alpha virt. eigenvalues --    0.21281   0.22263   0.22970   0.23032   0.23156
 Alpha virt. eigenvalues --    0.23439   0.23578   0.23847   0.24062   0.24899
 Alpha virt. eigenvalues --    0.25222   0.25769   0.25960   0.26368   0.27472
 Alpha virt. eigenvalues --    0.28058   0.28342   0.28490   0.29048   0.29418
 Alpha virt. eigenvalues --    0.30090   0.30239   0.30372   0.30660   0.30930
 Alpha virt. eigenvalues --    0.31069   0.31230   0.31350   0.31599   0.31940
 Alpha virt. eigenvalues --    0.32277   0.32395   0.32880   0.33151   0.33550
 Alpha virt. eigenvalues --    0.33840   0.34377   0.34724   0.34991   0.35586
 Alpha virt. eigenvalues --    0.35784   0.36063   0.36256   0.36570   0.36787
 Alpha virt. eigenvalues --    0.37132   0.37468   0.37638   0.37731   0.37904
 Alpha virt. eigenvalues --    0.37973   0.38174   0.38524   0.38633   0.38982
 Alpha virt. eigenvalues --    0.39175   0.39191   0.39446   0.39702   0.39769
[...]
   D153       3.13886  -0.00007   0.00000  -0.00015  -0.00015   3.13871
   D154       3.11704   0.00015   0.00000   0.00035   0.00035   3.11739
   D155      -0.00146  -0.00002   0.00000  -0.00004  -0.00004  -0.00150
   D156      -1.12171   0.00007   0.00000   0.00017   0.00017  -1.12154
   D157       1.02197   0.00006   0.00000   0.00015   0.00015   1.02212
   D158       3.09344   0.00005   0.00000   0.00011   0.00011   3.09356
   D159      -0.02019  -0.00001   0.00000  -0.00002  -0.00002  -0.02021
   D160       3.13001   0.00000   0.00000   0.00000   0.00000   3.13001
   D161       3.11955   0.00002   0.00000   0.00004   0.00004   3.11959
   D162      -0.01343   0.00002   0.00000   0.00006   0.00006  -0.01338
         Item               Value     Threshold  Converged?
 Maximum Force            0.021777     0.000450     NO 
 RMS     Force            0.001171     0.000300     NO 
 Maximum Displacement     0.032418     0.001800     NO 
 RMS     Displacement     0.003792     0.001200     NO 
 Predicted change in Energy=-6.851304D-04
 GradGradGradGradGradGradGradGradGradGradGradGradGradGradGradGradGradGrad

 Stoichiometry    C34H24N4O4S2
 Framework group  C1[X(C34H24N4O4S2)]
 Deg. of freedom   198
 Full point group                 C1      NOp   1
 Largest Abelian subgroup         C1      NOp   1
 Largest concise Abelian subgroup C1      NOp   1
                         Standard orientation:                         
 ---------------------------------------------------------------------
 Center     Atomic      Atomic             Coordinates (Angstroms)
 Number     Number       Type             X           Y           Z
 ---------------------------------------------------------------------
      1          6           0        7.716874    5.983413   -0.550098
      2          8           0        6.907962    5.180235   -1.410220
      3          6           0        6.566997    3.936682   -1.020514
      4          6           0        6.958209    3.336653    0.182138
      5          6           0        6.544525    2.041620    0.474632
      6          6           0        5.746864    1.322265   -0.421027
      7          7           0        5.290004    0.007505   -0.096074
      8          6           0        3.863754   -0.261403   -0.269873
      9          6           0        3.400991   -0.823308   -1.455242
     10          6           0        2.037847   -1.045596   -1.624377
     11          6           0        1.113257   -0.731149   -0.614988
     12          6           0        1.614990   -0.172871    0.573062
     13          6           0        2.974165    0.069541    0.744194
     14          1           0        3.335672    0.514313    1.664443
     15          1           0        0.931399    0.079215    1.373986
     16          6           0       -0.321166   -0.975250   -0.809514
     17         16           0       -1.530829   -0.022073    0.030259
     18          6           0       -2.855942   -0.897784   -0.731109
     19          6           0       -2.348688   -1.856454   -1.582188
     20          6           0       -0.930099   -1.898315   -1.616404
     21          1           0       -0.379758   -2.611559   -2.218129
     22          1           0       -2.997510   -2.504995   -2.149328
     23          6           0       -4.239115   -0.555771   -0.427641
     24          6           0       -4.569815    0.538656    0.389505
     25          6           0       -5.867824    0.900971    0.723896
     26          6           0       -6.991783    0.185286    0.256376
     27          6           0       -6.705610   -0.943431   -0.601973
     28          6           0       -5.335484   -1.314339   -0.943069
     29          7           0       -5.261248   -2.378911   -1.749385
     30         16           0       -6.819612   -2.874259   -2.045953
     31          7           0       -7.623780   -1.730775   -1.149884
     32          6           0       -8.355018    0.469931    0.538772
     33          6           0       -8.964619    1.432371    1.322184
     34          6           0       -8.246330    2.368602    2.114790
     35          7           0       -7.639546    3.145263    2.755249
     36          6           0      -10.441097    1.526587    1.463731
     37          8           0      -10.994832    2.137548    2.342533
     38          8           0      -11.192301    0.871100    0.526833
     39          1           0      -10.634384    0.595382   -0.209083
     40          1           0       -9.021711   -0.239576    0.056663
     41          1           0       -6.010546    1.759625    1.362649
     42          1           0       -3.767670    1.149863    0.788562
     43          1           0        1.682937   -1.458445   -2.560197
     44          1           0        4.096942   -1.084988   -2.244472
     45          6           0        6.110347   -0.954904    0.422796
     46          6           0        7.530149   -0.829451    0.386875
     47          6           0        8.348526   -1.795628    0.927025
     48          6           0        7.787881   -2.940310    1.528487
     49          6           0        6.381690   -3.104303    1.524213
     50          6           0        5.565284   -2.153478    0.976863
     51          1           0        4.495807   -2.296813    0.980261
     52          1           0        5.972438   -4.003633    1.965109
     53          8           0        8.483613   -3.928002    2.093602
     54          6           0        9.914337   -3.847482    2.171531
     55          1           0       10.356016   -3.850811    1.172292
     56          1           0       10.222011   -2.955354    2.721645
     57          1           0       10.222947   -4.738253    2.711318
     58          1           0        9.420363   -1.677860    0.854108
     59          1           0        7.974906    0.012832   -0.121624
     60          6           0        5.329980    1.941630   -1.610666
     61          6           0        5.743709    3.222481   -1.909497
     62          1           0        5.438061    3.706640   -2.827904
     63          1           0        4.680670    1.415022   -2.296039
     64          1           0        6.810815    1.606193    1.429636
     65          1           0        7.556890    3.872670    0.904994
     66          1           0        7.848415    6.928320   -1.071705
     67          1           0        7.218113    6.161955    0.407108
     68          1           0        8.693994    5.520180   -0.381847
 ---------------------------------------------------------------------
 Rotational constants (GHZ):      0.1145544      0.0185699      0.0171468
 Standard basis: 6-311G(d,p) (5D, 7F)
 There are   996 symmetry adapted cartesian basis functions of A   symmetry.
 There are   952 symmetry adapted basis functions of A   symmetry.
   952 basis functions,  1628 primitive gaussians,   996 cartesian basis functions
   160 alpha electrons      160 beta electrons
       nuclear repulsion energy      4744.7125254504 Hartrees.
 NAtoms=   68 NActive=   68 NUniq=   68 SFac= 1.00D+00 NAtFMM=   60 NAOKFM=T Big=T
 Integral buffers will be    131072 words long.
 Regular integral format.
 Two-electron integral symmetry is turned on.
 One-electron integrals computed using PRISM.
 NBasis=   952 RedAO= T EigKep=  1.27D-04  NBF=   952
 NBsUse=   952 1.00D-06 EigRej= -1.00D+00 NBFU=   952
 Initial guess from the checkpoint file:  "/tmp/bnp.467170.sequoia/Gau-14056.chk"
 B after Tr=     0.000000    0.000000    0.000000
         Rot=    1.000000    0.000052    0.000035    0.000097 Ang=   0.01 deg.
 ExpMin= 7.71D-02 ExpMax= 9.34D+04 ExpMxC= 3.17D+03 IAcc=2 IRadAn=         4 AccDes= 0.00D+00
 Harris functional with IExCor=  402 and IRadAn=       4 diagonalized for initial guess.
 HarFok:  IExCor=  402 AccDes= 0.00D+00 IRadAn=         4 IDoV= 1 UseB2=F ITyADJ=14
 ICtDFT=  3500011 ScaDFX=  1.000000  1.000000  1.000000  1.000000
 FoFCou: FMM=F IPFlag=           0 FMFlag=      100000 FMFlg1=        2001
         NFxFlg=           0 DoJE=T BraDBF=F KetDBF=T FulRan=T
         wScrn=  0.000000 ICntrl=     500 IOpCl=  0 I1Cent=   200000004 NGrid=           0
         NMat0=    1 NMatS0=      1 NMatT0=    0 NMatD0=    1 NMtDS0=    0 NMtDT0=    0
 Petite list used in FoFCou.
 Requested convergence on RMS density matrix=1.00D-08 within 128 cycles.
 Requested convergence on MAX density matrix=1.00D-06.
 Requested convergence on             energy=1.00D-06.
 No special actions if energy rises.
 Integral accuracy reduced to 1.0D-05 until final iterations.
 Initial convergence to 1.0D-05 achieved.  Increase integral accuracy.
 SCF Done:  E(RB3LYP) =  -2626.76454378     A.U. after   13 cycles
            NFock= 13  Conv=0.27D-08     -V/T= 2.0031
 DoSCS=F DFT=T ScalE2(SS,OS)=  1.000000  1.000000
 ExpMin= 7.71D-02 ExpMax= 9.34D+04 ExpMxC= 3.17D+03 IAcc=3 IRadAn=         5 AccDes= 0.00D+00
 HarFok:  IExCor=  205 AccDes= 0.00D+00 IRadAn=         5 IDoV=-2 UseB2=F ITyADJ=14
 ICtDFT= 12500011 ScaDFX=  1.000000  1.000000  1.000000  1.000000
 Range of M.O.s used for correlation:    53   952
 NBasis=   952 NAE=   160 NBE=   160 NFC=    52 NFV=     0
 NROrb=    900 NOA=   108 NOB=   108 NVA=   792 NVB=   792

 **** Warning!!: The largest alpha MO coefficient is  0.15373478D+02


 **** Warning!!: The smallest alpha delta epsilon is  0.31554151D-01

 Would need an additional        308090100000 words for in-memory AO integral storage.
 Orbital symmetries:
       Occupied  (A) (A) (A) (A) (A) (A) (A) (A) (A) (A) (A) (A)
                 (A) (A) (A) (A) (A) (A) (A) (A) (A) (A) (A) (A)
                 (A) (A) (A) (A) (A) (A) (A) (A) (A) (A) (A) (A)
                 (A) (A) (A) (A) (A) (A) (A) (A) (A) (A) (A) (A)
                 (A) (A) (A) (A) (A) (A) (A) (A) (A) (A) (A) (A)
                 (A) (A) (A) (A) (A) (A) (A) (A) (A) (A) (A) (A)
                 (A) (A) (A) (A) (A) (A) (A) (A) (A) (A) (A) (A)
                 (A) (A) (A) (A) (A) (A) (A) (A) (A) (A) (A) (A)
                 (A) (A) (A) (A) (A) (A) (A) (A) (A) (A) (A) (A)
                 (A) (A) (A) (A) (A) (A) (A) (A) (A) (A) (A) (A)
                 (A) (A) (A) (A) (A) (A) (A) (A) (A) (A) (A) (A)
                 (A) (A) (A) (A) (A) (A) (A) (A) (A) (A) (A) (A)
                 (A) (A) (A) (A) (A) (A) (A) (A) (A) (A) (A) (A)
                 (A) (A) (A) (A)
       Virtual   (A) (A) (A) (A) (A) (A) (A) (A) (A) (A) (A) (A)
                 (A) (A) (A) (A) (A) (A) (A) (A) (A) (A) (A) (A)
                 (A) (A) (A) (A) (A) (A) (A) (A) (A) (A) (A) (A)
                 (A) (A) (A) (A) (A) (A) (A) (A) (A) (A) (A) (A)
                 (A) (A) (A) (A) (A) (A) (A) (A) (A) (A) (A) (A)
                 (A) (A) (A) (A) (A) (A) (A) (A) (A) (A) (A) (A)
                 (A) (A) (A) (A) (A) (A) (A) (A) (A) (A) (A) (A)
                 (A) (A) (A) (A) (A) (A) (A) (A) (A) (A) (A) (A)
                 (A) (A) (A) (A) (A) (A) (A) (A) (A) (A) (A) (A)
                 (A) (A) (A) (A) (A) (A) (A) (A) (A) (A) (A) (A)
                 (A) (A) (A) (A) (A) (A) (A) (A) (A) (A) (A) (A)
                 (A) (A) (A) (A) (A) (A) (A) (A) (A) (A) (A) (A)
                 (A) (A) (A) (A) (A) (A) (A) (A) (A) (A) (A) (A)
                 (A) (A) (A) (A) (A) (A) (A) (A) (A) (A) (A) (A)
                 (A) (A) (A) (A) (A) (A) (A) (A) (A) (A) (A) (A)
                 (A) (A) (A) (A) (A) (A) (A) (A) (A) (A) (A) (A)
                 (A) (A) (A) (A) (A) (A) (A) (A) (A) (A) (A) (A)
                 (A) (A) (A) (A) (A) (A) (A) (A) (A) (A) (A) (A)
                 (A) (A) (A) (A) (A) (A) (A) (A) (A) (A) (A) (A)
                 (A) (A) (A) (A) (A) (A) (A) (A) (A) (A) (A) (A)
                 (A) (A) (A) (A) (A) (A) (A) (A) (A) (A) (A) (A)
                 (A) (A) (A) (A) (A) (A) (A) (A) (A) (A) (A) (A)
                 (A) (A) (A) (A) (A) (A) (A) (A) (A) (A) (A) (A)
                 (A) (A) (A) (A) (A) (A) (A) (A) (A) (A) (A) (A)
                 (A) (A) (A) (A) (A) (A) (A) (A) (A) (A) (A) (A)
                 (A) (A) (A) (A) (A) (A) (A) (A) (A) (A) (A) (A)
                 (A) (A) (A) (A) (A) (A) (A) (A) (A) (A) (A) (A)
                 (A) (A) (A) (A) (A) (A) (A) (A) (A) (A) (A) (A)
                 (A) (A) (A) (A) (A) (A) (A) (A) (A) (A) (A) (A)
                 (A) (A) (A) (A) (A) (A) (A) (A) (A) (A) (A) (A)
                 (A) (A) (A) (A) (A) (A) (A) (A) (A) (A) (A) (A)
                 (A) (A) (A) (A) (A) (A) (A) (A) (A) (A) (A) (A)
                 (A) (A) (A) (A) (A) (A) (A) (A) (A) (A) (A) (A)
                 (A) (A) (A) (A) (A) (A) (A) (A) (A) (A) (A) (A)
                 (A) (A) (A) (A) (A) (A) (A) (A) (A) (A) (A) (A)
                 (A) (A) (A) (A) (A) (A) (A) (A) (A) (A) (A) (A)
                 (A) (A) (A) (A) (A) (A) (A) (A) (A) (A) (A) (A)
                 (A) (A) (A) (A) (A) (A) (A) (A) (A) (A) (A) (A)
                 (A) (A) (A) (A) (A) (A) (A) (A) (A) (A) (A) (A)
                 (A) (A) (A) (A) (A) (A) (A) (A) (A) (A) (A) (A)
                 (A) (A) (A) (A) (A) (A) (A) (A) (A) (A) (A) (A)
                 (A) (A) (A) (A) (A) (A) (A) (A) (A) (A) (A) (A)
                 (A) (A) (A) (A) (A) (A) (A) (A) (A) (A) (A) (A)
                 (A) (A) (A) (A) (A) (A) (A) (A) (A) (A) (A) (A)
                 (A) (A) (A) (A) (A) (A) (A) (A) (A) (A) (A) (A)
                 (A) (A) (A) (A) (A) (A) (A) (A) (A) (A) (A) (A)
                 (A) (A) (A) (A) (A) (A) (A) (A) (A) (A) (A) (A)
                 (A) (A) (A) (A) (A) (A) (A) (A) (A) (A) (A) (A)
                 (A) (A) (A) (A) (A) (A) (A) (A) (A) (A) (A) (A)
                 (A) (A) (A) (A) (A) (A) (A) (A) (A) (A) (A) (A)
                 (A) (A) (A) (A) (A) (A) (A) (A) (A) (A) (A) (A)
                 (A) (A) (A) (A) (A) (A) (A) (A) (A) (A) (A) (A)
                 (A) (A) (A) (A) (A) (A) (A) (A) (A) (A) (A) (A)
                 (A) (A) (A) (A) (A) (A) (A) (A) (A) (A) (A) (A)
                 (A) (A) (A) (A) (A) (A) (A) (A) (A) (A) (A) (A)
                 (A) (A) (A) (A) (A) (A) (A) (A) (A) (A) (A) (A)
                 (A) (A) (A) (A) (A) (A) (A) (A) (A) (A) (A) (A)
                 (A) (A) (A) (A) (A) (A) (A) (A) (A) (A) (A) (A)
                 (A) (A) (A) (A) (A) (A) (A) (A) (A) (A) (A) (A)
                 (A) (A) (A) (A) (A) (A) (A) (A) (A) (A) (A) (A)
                 (A) (A) (A) (A) (A) (A) (A) (A) (A) (A) (A) (A)
                 (A) (A) (A) (A) (A) (A) (A) (A) (A) (A) (A) (A)
                 (A) (A) (A) (A) (A) (A) (A) (A) (A) (A) (A) (A)
                 (A) (A) (A) (A) (A) (A) (A) (A) (A) (A) (A) (A)
                 (A) (A) (A) (A) (A) (A) (A) (A) (A) (A) (A) (A)
                 (A) (A) (A) (A) (A) (A) (A) (A) (A) (A) (A) (A)
 Generating guess from densities on rwf.
 Convergence on wavefunction:    0.000001000000000
 Iteration     1 Dimension     2 NMult     0 NNew      2
 CISAX will form     2 AO SS matrices at one time.
 Iteration     2 Dimension     4 NMult     2 NNew      2
 Iteration     3 Dimension     6 NMult     4 NNew      2
 Iteration     4 Dimension     8 NMult     6 NNew      2
 Iteration     5 Dimension    10 NMult     8 NNew      2
 Iteration     6 Dimension    12 NMult    10 NNew      2
 ***********************************************************************
 Excited states from <AA,BB:AA,BB> singles matrix:
 ***********************************************************************
 
 Ground to excited state transition densities written to RWF  633
 Ground to excited state transition electric dipole moments (Au):
       state          X           Y           Z        Dip. S.      Osc.
         1         0.9586      0.0191      0.0323      0.9204      0.0139
 Ground to excited state transition velocity dipole moments (Au):
       state          X           Y           Z        Dip. S.      Osc.
         1        -0.0215     -0.0006     -0.0009      0.0005      0.0136
 Ground to excited state transition magnetic dipole moments (Au):
       state          X           Y           Z
         1        -0.0335      0.0370     -0.0412
 Ground to excited state transition velocity quadrupole moments (Au):
       state          XX          YY          ZZ          XY          XZ          YZ
         1        -0.0155     -0.0217      0.0031     -0.0006     -0.0169      0.0202
 <0|del|b> * <b|rxdel|0> + <0|del|b> * <b|delr+rdel|0>
 Rotatory Strengths (R) in cgs (10**-40 erg-esu-cm/Gauss)
       state          XX          YY          ZZ    R(velocity)    E-M Angle
         1         0.0503      4.9987     17.8031      7.6174       58.26
 1/2[<0|r|b>*<b|rxdel|0> + (<0|rxdel|b>*<b|r|0>)*]
 Rotatory Strengths (R) in cgs (10**-40 erg-esu-cm/Gauss)
       state          XX          YY          ZZ     R(length)
         1        22.6929     -0.5009      0.9398      7.7106
  1/2[<0|del|b>*<b|r|0> + (<0|r|b>*<b|del|0>)*] (Au)
       state          X           Y           Z        Dip. S.   Osc.(frdel)
         1        -0.0206      0.0000      0.0000      0.0207      0.0138

 Excitation energies and oscillator strengths:
 
 Excited State   1:      Singlet-A      0.6170 eV 2009.32 nm  f=0.0139  <S**2>=0.000
     160 ->161         0.70651
 This state for optimization and/or second-order correction.
 Total Energy, E(TD-HF/TD-KS) =  -2626.74186775    
 Copying the excited state density for this state as the 1-particle RhoCI density.
 SavETr:  write IOETrn=   770 NScale= 10 NData=  16 NLR=1 NState=    1 LETran=      28.
          IDoAtm=11111111111111111111111111111111111111111111111111
          IDoAtm=111111111111111111
          Differentiating once with respect to electric field.
                with respect to dipole field.
          Differentiating once with respect to nuclear coordinates.
          There are     1 degrees of freedom in the 1st order CPHF.  IDoFFX=0 NUNeed=     1.
 LinEq1:  Iter=  0 NonCon=     1 RMS=7.41D-03 Max=1.83D+00 NDo=     1
 AX will form     1 AO Fock derivatives at one time.
 LinEq1:  Iter=  1 NonCon=     1 RMS=6.03D-03 Max=1.08D+00 NDo=     1
 LinEq1:  Iter=  2 NonCon=     1 RMS=4.08D-03 Max=5.58D-01 NDo=     1
 LinEq1:  Iter=  3 NonCon=     1 RMS=2.27D-03 Max=1.66D-01 NDo=     1
 LinEq1:  Iter=  4 NonCon=     1 RMS=2.10D-03 Max=1.98D-01 NDo=     1
 LinEq1:  Iter=  5 NonCon=     1 RMS=1.92D-03 Max=1.56D-01 NDo=     1
 LinEq1:  Iter=  6 NonCon=     1 RMS=1.31D-03 Max=1.09D-01 NDo=     1
 LinEq1:  Iter=  7 NonCon=     1 RMS=1.24D-03 Max=9.97D-02 NDo=     1
 LinEq1:  Iter=  8 NonCon=     1 RMS=1.24D-03 Max=1.12D-01 NDo=     1
 LinEq1:  Iter=  9 NonCon=     1 RMS=9.17D-04 Max=7.84D-02 NDo=     1
 LinEq1:  Iter= 10 NonCon=     1 RMS=6.88D-04 Max=4.22D-02 NDo=     1
 LinEq1:  Iter= 11 NonCon=     1 RMS=4.26D-04 Max=2.65D-02 NDo=     1
 LinEq1:  Iter= 12 NonCon=     1 RMS=3.80D-04 Max=3.32D-02 NDo=     1
 LinEq1:  Iter= 13 NonCon=     1 RMS=2.82D-04 Max=1.58D-02 NDo=     1
 LinEq1:  Iter= 14 NonCon=     1 RMS=1.79D-04 Max=1.50D-02 NDo=     1
 LinEq1:  Iter= 15 NonCon=     1 RMS=1.23D-04 Max=8.01D-03 NDo=     1
 LinEq1:  Iter= 16 NonCon=     1 RMS=7.34D-05 Max=3.89D-03 NDo=     1
 LinEq1:  Iter= 17 NonCon=     1 RMS=4.64D-05 Max=2.16D-03 NDo=     1
 LinEq1:  Iter= 18 NonCon=     1 RMS=2.96D-05 Max=2.68D-03 NDo=     1
 LinEq1:  Iter= 19 NonCon=     1 RMS=2.07D-05 Max=1.20D-03 NDo=     1
 LinEq1:  Iter= 20 NonCon=     1 RMS=1.59D-05 Max=8.53D-04 NDo=     1
 LinEq1:  Iter= 21 NonCon=     1 RMS=8.30D-06 Max=4.76D-04 NDo=     1
 LinEq1:  Iter= 22 NonCon=     1 RMS=5.58D-06 Max=2.62D-04 NDo=     1
 LinEq1:  Iter= 23 NonCon=     1 RMS=3.54D-06 Max=1.93D-04 NDo=     1
 LinEq1:  Iter= 24 NonCon=     1 RMS=2.40D-06 Max=1.27D-04 NDo=     1
 LinEq1:  Iter= 25 NonCon=     1 RMS=1.57D-06 Max=1.04D-04 NDo=     1
 LinEq1:  Iter= 26 NonCon=     1 RMS=1.07D-06 Max=5.48D-05 NDo=     1
 LinEq1:  Iter= 27 NonCon=     1 RMS=6.46D-07 Max=4.82D-05 NDo=     1
 LinEq1:  Iter= 28 NonCon=     1 RMS=3.87D-07 Max=2.99D-05 NDo=     1
 LinEq1:  Iter= 29 NonCon=     1 RMS=2.62D-07 Max=2.14D-05 NDo=     1
 LinEq1:  Iter= 30 NonCon=     1 RMS=1.45D-07 Max=6.98D-06 NDo=     1
