 Entering Gaussian System, Link 0=g16
 Input=mex.com
 Output=mex.out
 Initial command:
 /usr/local/apps/gaussian/g16-b01-avx2//g16/l1.exe "/tmp/r2532.848689.maple/Gau-36784.inp" -scrdir="/tmp/r2532.848689.maple/"
 Entering Link 1 = /usr/local/apps/gaussian/g16-b01-avx2//g16/l1.exe PID=     36785.
  
 Copyright (c) 1988-2017, Gaussian, Inc.  All Rights Reserved.
  
 This is part of the Gaussian(R) 16 program.  It is based on
 the Gaussian(R) 09 system (copyright 2009, Gaussian, Inc.),
 the Gaussian(R) 03 system (copyright 2003, Gaussian, Inc.),
 the Gaussian(R) 98 system (copyright 1998, Gaussian, Inc.),
 the Gaussian(R) 94 system (copyright 1995, Gaussian, Inc.),
 the Gaussian 92(TM) system (copyright 1992, Gaussian, Inc.),
 the Gaussian 90(TM) system (copyright 1990, Gaussian, Inc.),
 the Gaussian 88(TM) system (copyright 1988, Gaussian, Inc.),
 the Gaussian 86(TM) system (copyright 1986, Carnegie Mellon
 University), and the Gaussian 82(TM) system (copyright 1983,
 Carnegie Mellon University). Gaussian is a federally registered
 trademark of Gaussian, Inc.
  
 This software contains proprietary and confidential information,
 including trade secrets, belonging to Gaussian, Inc.
  
 This software is provided under written license and may be
 used, copied, transmitted, or stored only in accord with that
 written license.
  
 The following legend is applicable only to US Government
 contracts under FAR:
  
                    RESTRICTED RIGHTS LEGEND
  
 Use, reproduction and disclosure by the US Government is
 subject to restrictions as set forth in subparagraphs (a)
 and (c) of the Commercial Computer Software - Restricted
 Rights clause in FAR 52.227-19.
  
 Gaussian, Inc.
 340 Quinnipiac St., Bldg. 40, Wallingford CT 06492
  
  
 ---------------------------------------------------------------
 Warning -- This program may not be used in any manner that
 competes with the business of Gaussian, Inc. or will provide
 assistance to any competitor of Gaussian, Inc.  The licensee
 of this program is prohibited from giving any competitor of
 Gaussian, Inc. access to this program.  By using this program,
 the user acknowledges that Gaussian, Inc. is engaged in the
 business of creating and licensing software in the field of
 computational chemistry and represents and warrants to the
 licensee that it is not a competitor of Gaussian, Inc. and that
 it will not use this program in any manner prohibited above.
 ---------------------------------------------------------------
  

 Cite this work as:
 Gaussian 16, Revision B.01,
 M. J. Frisch, G. W. Trucks, H. B. Schlegel, G. E. Scuseria, 
 M. A. Robb, J. R. Cheeseman, G. Scalmani, V. Barone, 
 G. A. Petersson, H. Nakatsuji, X. Li, M. Caricato, A. V. Marenich, 
 J. Bloino, B. G. Janesko, R. Gomperts, B. Mennucci, H. P. Hratchian, 
 J. V. Ortiz, A. F. Izmaylov, J. L. Sonnenberg, D. Williams-Young, 
 F. Ding, F. Lipparini, F. Egidi, J. Goings, B. Peng, A. Petrone, 
 T. Henderson, D. Ranasinghe, V. G. Zakrzewski, J. Gao, N. Rega, 
 G. Zheng, W. Liang, M. Hada, M. Ehara, K. Toyota, R. Fukuda, 
 J. Hasegawa, M. Ishida, T. Nakajima, Y. Honda, O. Kitao, H. Nakai, 
 T. Vreven, K. Throssell, J. A. Montgomery, Jr., J. E. Peralta, 
 F. Ogliaro, M. J. Bearpark, J. J. Heyd, E. N. Brothers, K. N. Kudin, 
 V. N. Staroverov, T. A. Keith, R. Kobayashi, J. Normand, 
 K. Raghavachari, A. P. Rendell, J. C. Burant, S. S. Iyengar, 
 J. Tomasi, M. Cossi, J. M. Millam, M. Klene, C. Adamo, R. Cammi, 
 J. W. Ochterski, R. L. Martin, K. Morokuma, O. Farkas, 
 J. B. Foresman, and D. J. Fox, Gaussian, Inc., Wallingford CT, 2016.
 
 ******************************************
 Gaussian 16:  ES64L-G16RevB.01 20-Dec-2017
                 9-Jun-2021 
 ******************************************
 %mem=8gb
 ------------------------
 #N B3LYP/6-311G(d,p) OPT
 ------------------------
 1/18=20,19=15,26=3,38=1/1,3;
 2/9=110,12=2,17=6,18=5,40=1/2;
 3/5=4,6=6,7=101,11=2,25=1,30=1,71=1,74=-5/1,2,3;
 4//1;
 5/5=2,38=5/2;
 6/7=2,8=2,9=2,10=2,28=1/1;
 7//1,2,3,16;
 1/18=20,19=15,26=3/3(2);
 2/9=110/2;
 99//99;
 2/9=110/2;
 3/5=4,6=6,7=101,11=2,25=1,30=1,71=1,74=-5/1,2,3;
 4/5=5,16=3,69=1/1;
 5/5=2,38=5/2;
 7//1,2,3,16;
 1/18=20,19=15,26=3/3(-5);
 2/9=110/2;
 6/7=2,8=2,9=2,10=2,19=2,28=1/1;
 99/9=1/99;
 ------------
 C41H28O4N2S4
 ------------
 Symbolic Z-matrix:
 Charge =  0 Multiplicity = 1
 C                     0.        0.        0. 
 C                     1.0799    1.03945  -0.17019 
 C                     0.65839   2.29035  -0.36544 
 C                    -0.67846   2.28392  -0.35638 
 S                    -1.79429   3.2115   -0.4942 
 C                    -2.90621   2.24664  -0.28886 
 C                    -4.21771   2.5881   -0.2892 
 C                    -4.66153   3.84574  -0.501 
 C                    -5.96524   4.1684   -0.48729 
 C                    -6.93184   3.25944  -0.25665 
 N                    -8.28922   3.57324  -0.2251 
 C                    -8.71232   4.84994   0.13566 
 C                    -9.74821   5.46923  -0.46577 
 H                    -10.29276   4.97417  -1.28787 
 C                    -10.15332   6.69554  -0.10266 
 C                    -9.52666   7.39548   0.8596 
 C                    -8.53812   6.75308   1.50713 
 C                    -8.13174   5.52634   1.14585 
 H                    -7.31522   5.06159   1.72456 
 H                    -8.04694   7.25136   2.3606 
 O                    -9.97618   8.62501   1.2674 
 C                    -9.45316   9.70264   0.51412 
 H                    -8.34071   9.72058   0.60048 
 H                    -9.75948   9.60897  -0.55512 
 H                    -9.86636   10.65047   0.93187 
 H                    -11.01936   7.14877  -0.61565 
 C                    -9.22601   2.64675  -0.67537 
 C                    -9.00624   1.83542  -1.72897 
 C                    -9.92155   0.94713  -2.145 
 C                    -11.09396   0.78292  -1.50652 
 C                    -11.34206   1.63506  -0.49602 
 C                    -10.42845   2.52508  -0.08022 
 H                    -10.68777   3.16316   0.78202 
 H                    -12.32015   1.5867    0.01379 
 O                    -12.04832  -0.09126  -1.96001 
 C                    -11.94685  -1.38398  -1.39137 
 H                    -10.96617  -1.84235  -1.6631 
 H                    -12.05162  -1.32424  -0.28156 
 H                    -12.76931  -2.01345  -1.80551 
 H                    -9.70369   0.32795  -3.03234 
 H                    -8.06298   1.9074   -2.29704 
 C                    -6.49336   2.0044   -0.04668 
 C                    -5.19092   1.6811   -0.06905 
 H                    -4.96897   0.62026   0.12487 
 H                    -7.21528   1.19863   0.17238 
 H                    -6.23345   5.21971  -0.6891 
 H                    -3.96984   4.68095  -0.7038 
 C                    -2.42048   1.00066  -0.1003 
 C                    -1.08954   1.03349  -0.14499 
 H                    -2.96719   0.06135   0.07559 
 S                     1.76178   3.2321   -0.51555 
 C                     2.87275   2.26702  -0.34002 
 C                     2.41143   1.0115   -0.15899 
 H                     2.99118   0.0868   -0.00229 
 C                     4.17551   2.62145  -0.35114 
 S                     5.28172   1.66392  -0.17967 
 C                     6.48845   2.5234   -0.23759 
 C                     6.07548   3.78677  -0.4342 
 C                     4.74326   3.82354  -0.49696 
 C                     4.39043   5.10064  -0.68523 
 C                     5.55506   5.7773   -0.72498 
 S                     6.68621   5.00133  -0.58172 
 C                     5.55818   7.13016  -0.89786 
 O                     4.4979    7.71101  -1.00294 
 O                     6.72589   7.8572   -0.93506 
 C                     6.6135    9.26264  -1.03172 
 H                     6.10475   9.5425   -1.98431 
 H                     6.06016   9.66389  -0.14951 
 H                     7.64318   9.69094  -1.03393 
 H                     3.36973   5.50481  -0.7799 
 C                     7.69874   1.93265  -0.10374 
 C                     8.962     2.40681  -0.09904 
 C                     9.3211    3.67167  -0.2198 
 N                     9.65127   4.77887  -0.31812 
 C                     10.01247   1.5407    0.04377 
 O                     9.90725   0.1944    0.18216 
 H                     8.97612  -0.07086   0.18742 
 O                     11.12586   2.02473   0.03872 
 H                     7.64533   0.83961   0.02858 
 C                    -0.01561  -1.01968  -1.14058 
 H                    -0.04396  -0.51924  -2.13603 
 H                     0.89288  -1.66293  -1.10774 
 H                    -0.90846  -1.68149  -1.06702 
 C                     0.02119  -0.64593   1.38685 
 H                     0.03917   0.1208    2.19559 
 H                    -0.87902  -1.28365   1.54082 
 H                     0.92173  -1.29018   1.50722 
 

 GradGradGradGradGradGradGradGradGradGradGradGradGradGradGradGradGradGrad
 Berny optimization.
 Initialization pass.
                           ----------------------------
                           !    Initial Parameters    !
                           ! (Angstroms and Degrees)  !
 --------------------------                            --------------------------
 ! Name  Definition              Value          Derivative Info.                !
 --------------------------------------------------------------------------------
 ! R1    R(1,2)                  1.5085         estimate D2E/DX2                !
 ! R2    R(1,49)                 1.5087         estimate D2E/DX2                !
 ! R3    R(1,80)                 1.53           estimate D2E/DX2                !
 ! R4    R(1,84)                 1.53           estimate D2E/DX2                !
 ! R5    R(2,3)                  1.3344         estimate D2E/DX2                !
 ! R6    R(2,53)                 1.3319         estimate D2E/DX2                !
 ! R7    R(3,4)                  1.3369         estimate D2E/DX2                !
 ! R8    R(3,51)                 1.4584         estimate D2E/DX2                !
 ! R9    R(4,5)                  1.4576         estimate D2E/DX2                !
 ! R10   R(4,49)                 1.3331         estimate D2E/DX2                !
 ! R11   R(5,6)                  1.4864         estimate D2E/DX2                !
 ! R12   R(6,7)                  1.3552         estimate D2E/DX2                !
 ! R13   R(6,48)                 1.3505         estimate D2E/DX2                !
 ! R14   R(7,8)                  1.3504         estimate D2E/DX2                !
 ! R15   R(7,43)                 1.3484         estimate D2E/DX2                !
 ! R16   R(8,9)                  1.3431         estimate D2E/DX2                !
 ! R17   R(8,47)                 1.1032         estimate D2E/DX2                !
 ! R18   R(9,10)                 1.3467         estimate D2E/DX2                !
 ! R19   R(9,46)                 1.1036         estimate D2E/DX2                !
 ! R20   R(10,11)                1.3935         estimate D2E/DX2                !
 ! R21   R(10,42)                1.3459         estimate D2E/DX2                !
 ! R22   R(11,12)                1.3925         estimate D2E/DX2                !
 ! R23   R(11,27)                1.3924         estimate D2E/DX2                !
 ! R24   R(12,13)                1.3485         estimate D2E/DX2                !
 ! R25   R(12,18)                1.3472         estimate D2E/DX2                !
 ! R26   R(13,14)                1.1034         estimate D2E/DX2                !
 ! R27   R(13,15)                1.3416         estimate D2E/DX2                !
 ! R28   R(15,16)                1.3448         estimate D2E/DX2                !
 ! R29   R(15,26)                1.1039         estimate D2E/DX2                !
 ! R30   R(16,17)                1.3451         estimate D2E/DX2                !
 ! R31   R(16,21)                1.3712         estimate D2E/DX2                !
 ! R32   R(17,18)                1.3419         estimate D2E/DX2                !
 ! R33   R(17,20)                1.1036         estimate D2E/DX2                !
 ! R34   R(18,19)                1.1034         estimate D2E/DX2                !
 ! R35   R(21,22)                1.415          estimate D2E/DX2                !
 ! R36   R(22,23)                1.1159         estimate D2E/DX2                !
 ! R37   R(22,24)                1.1162         estimate D2E/DX2                !
 ! R38   R(22,25)                1.1152         estimate D2E/DX2                !
 ! R39   R(27,28)                1.3478         estimate D2E/DX2                !
 ! R40   R(27,32)                1.3472         estimate D2E/DX2                !
 ! R41   R(28,29)                1.3416         estimate D2E/DX2                !
 ! R42   R(28,41)                1.1034         estimate D2E/DX2                !
 ! R43   R(29,30)                1.3451         estimate D2E/DX2                !
 ! R44   R(29,40)                1.1037         estimate D2E/DX2                !
 ! R45   R(30,31)                1.3449         estimate D2E/DX2                !
 ! R46   R(30,35)                1.3714         estimate D2E/DX2                !
 ! R47   R(31,32)                1.3415         estimate D2E/DX2                !
 ! R48   R(31,34)                1.104          estimate D2E/DX2                !
 ! R49   R(32,33)                1.1036         estimate D2E/DX2                !
 ! R50   R(35,36)                1.4159         estimate D2E/DX2                !
 ! R51   R(36,37)                1.1161         estimate D2E/DX2                !
 ! R52   R(36,38)                1.1163         estimate D2E/DX2                !
 ! R53   R(36,39)                1.1154         estimate D2E/DX2                !
 ! R54   R(42,43)                1.3421         estimate D2E/DX2                !
 ! R55   R(42,45)                1.1038         estimate D2E/DX2                !
 ! R56   R(43,44)                1.101          estimate D2E/DX2                !
 ! R57   R(48,49)                1.3321         estimate D2E/DX2                !
 ! R58   R(48,50)                1.101          estimate D2E/DX2                !
 ! R59   R(51,52)                1.482          estimate D2E/DX2                !
 ! R60   R(52,53)                1.3498         estimate D2E/DX2                !
 ! R61   R(52,55)                1.3502         estimate D2E/DX2                !
 ! R62   R(53,54)                1.1026         estimate D2E/DX2                !
 ! R63   R(55,56)                1.4731         estimate D2E/DX2                !
 ! R64   R(55,59)                1.3374         estimate D2E/DX2                !
 ! R65   R(56,57)                1.4826         estimate D2E/DX2                !
 ! R66   R(57,58)                1.3436         estimate D2E/DX2                !
 ! R67   R(57,71)                1.3534         estimate D2E/DX2                !
 ! R68   R(58,59)                1.3342         estimate D2E/DX2                !
 ! R69   R(58,62)                1.3674         estimate D2E/DX2                !
 ! R70   R(59,60)                1.3383         estimate D2E/DX2                !
 ! R71   R(60,61)                1.3475         estimate D2E/DX2                !
 ! R72   R(60,70)                1.1019         estimate D2E/DX2                !
 ! R73   R(61,62)                1.3792         estimate D2E/DX2                !
 ! R74   R(61,63)                1.3639         estimate D2E/DX2                !
 ! R75   R(63,64)                1.2135         estimate D2E/DX2                !
 ! R76   R(63,65)                1.3761         estimate D2E/DX2                !
 ! R77   R(65,66)                1.4132         estimate D2E/DX2                !
 ! R78   R(66,67)                1.1156         estimate D2E/DX2                !
 ! R79   R(66,68)                1.116          estimate D2E/DX2                !
 ! R80   R(66,69)                1.1152         estimate D2E/DX2                !
 ! R81   R(71,72)                1.3493         estimate D2E/DX2                !
 ! R82   R(71,79)                1.1023         estimate D2E/DX2                !
 ! R83   R(72,73)                1.3204         estimate D2E/DX2                !
 ! R84   R(72,75)                1.3689         estimate D2E/DX2                !
 ! R85   R(73,74)                1.1596         estimate D2E/DX2                !
 ! R86   R(75,76)                1.3575         estimate D2E/DX2                !
 ! R87   R(75,78)                1.2141         estimate D2E/DX2                !
 ! R88   R(76,77)                0.9682         estimate D2E/DX2                !
 ! R89   R(80,81)                1.1145         estimate D2E/DX2                !
 ! R90   R(80,82)                1.1136         estimate D2E/DX2                !
 ! R91   R(80,83)                1.1138         estimate D2E/DX2                !
 ! R92   R(84,85)                1.1146         estimate D2E/DX2                !
 ! R93   R(84,86)                1.1139         estimate D2E/DX2                !
 ! R94   R(84,87)                1.1138         estimate D2E/DX2                !
 ! A1    A(2,1,49)              91.9555         estimate D2E/DX2                !
 ! A2    A(2,1,80)             112.4838         estimate D2E/DX2                !
 ! A3    A(2,1,84)             112.5347         estimate D2E/DX2                !
 ! A4    A(49,1,80)            112.1801         estimate D2E/DX2                !
 ! A5    A(49,1,84)            112.7245         estimate D2E/DX2                !
 ! A6    A(80,1,84)            113.2347         estimate D2E/DX2                !
 ! A7    A(1,2,3)              115.8697         estimate D2E/DX2                !
 ! A8    A(1,2,53)             134.4498         estimate D2E/DX2                !
 ! A9    A(3,2,53)             109.6763         estimate D2E/DX2                !
 ! A10   A(2,3,4)              108.0822         estimate D2E/DX2                !
 ! A11   A(2,3,51)             112.4219         estimate D2E/DX2                !
 ! A12   A(4,3,51)             139.4952         estimate D2E/DX2                !
 ! A13   A(3,4,5)              139.6252         estimate D2E/DX2                !
 ! A14   A(3,4,49)             108.2958         estimate D2E/DX2                !
 ! A15   A(5,4,49)             112.0767         estimate D2E/DX2                !
 ! A16   A(4,5,6)               98.4246         estimate D2E/DX2                !
 ! A17   A(5,6,7)              124.078          estimate D2E/DX2                !
 ! A18   A(5,6,48)             110.4329         estimate D2E/DX2                !
 ! A19   A(7,6,48)             125.4886         estimate D2E/DX2                !
 ! A20   A(6,7,8)              123.5566         estimate D2E/DX2                !
 ! A21   A(6,7,43)             121.9332         estimate D2E/DX2                !
 ! A22   A(8,7,43)             114.5098         estimate D2E/DX2                !
 ! A23   A(7,8,9)              122.7622         estimate D2E/DX2                !
 ! A24   A(7,8,47)             121.8597         estimate D2E/DX2                !
 ! A25   A(9,8,47)             115.3773         estimate D2E/DX2                !
 ! A26   A(8,9,10)             122.431          estimate D2E/DX2                !
 ! A27   A(8,9,46)             117.5736         estimate D2E/DX2                !
 ! A28   A(10,9,46)            119.9894         estimate D2E/DX2                !
 ! A29   A(9,10,11)            123.4359         estimate D2E/DX2                !
 ! A30   A(9,10,42)            114.9767         estimate D2E/DX2                !
 ! A31   A(11,10,42)           121.5863         estimate D2E/DX2                !
 ! A32   A(10,11,12)           120.5488         estimate D2E/DX2                !
 ! A33   A(10,11,27)           119.8798         estimate D2E/DX2                !
 ! A34   A(12,11,27)           119.3022         estimate D2E/DX2                !
 ! A35   A(11,12,13)           122.6106         estimate D2E/DX2                !
 ! A36   A(11,12,18)           121.5753         estimate D2E/DX2                !
 ! A37   A(13,12,18)           115.7793         estimate D2E/DX2                !
 ! A38   A(12,13,14)           120.3564         estimate D2E/DX2                !
 ! A39   A(12,13,15)           122.0773         estimate D2E/DX2                !
 ! A40   A(14,13,15)           117.5657         estimate D2E/DX2                !
 ! A41   A(13,15,16)           121.9181         estimate D2E/DX2                !
 ! A42   A(13,15,26)           119.1058         estimate D2E/DX2                !
 ! A43   A(16,15,26)           118.9727         estimate D2E/DX2                !
 ! A44   A(15,16,17)           115.9992         estimate D2E/DX2                !
 ! A45   A(15,16,21)           121.7853         estimate D2E/DX2                !
 ! A46   A(17,16,21)           121.7376         estimate D2E/DX2                !
 ! A47   A(16,17,18)           121.978          estimate D2E/DX2                !
 ! A48   A(16,17,20)           118.9315         estimate D2E/DX2                !
 ! A49   A(18,17,20)           119.0905         estimate D2E/DX2                !
 ! A50   A(12,18,17)           122.0297         estimate D2E/DX2                !
 ! A51   A(12,18,19)           120.0446         estimate D2E/DX2                !
 ! A52   A(17,18,19)           117.9009         estimate D2E/DX2                !
 ! A53   A(16,21,22)           113.7903         estimate D2E/DX2                !
 ! A54   A(21,22,23)           109.8475         estimate D2E/DX2                !
 ! A55   A(21,22,24)           110.1583         estimate D2E/DX2                !
 ! A56   A(21,22,25)           108.1138         estimate D2E/DX2                !
 ! A57   A(23,22,24)           110.4292         estimate D2E/DX2                !
 ! A58   A(23,22,25)           109.0693         estimate D2E/DX2                !
 ! A59   A(24,22,25)           109.1768         estimate D2E/DX2                !
 ! A60   A(11,27,28)           122.9313         estimate D2E/DX2                !
 ! A61   A(11,27,32)           121.1814         estimate D2E/DX2                !
 ! A62   A(28,27,32)           115.8814         estimate D2E/DX2                !
 ! A63   A(27,28,29)           121.9862         estimate D2E/DX2                !
 ! A64   A(27,28,41)           120.1683         estimate D2E/DX2                !
 ! A65   A(29,28,41)           117.8237         estimate D2E/DX2                !
 ! A66   A(28,29,30)           121.8914         estimate D2E/DX2                !
 ! A67   A(28,29,40)           119.0822         estimate D2E/DX2                !
 ! A68   A(30,29,40)           119.0248         estimate D2E/DX2                !
 ! A69   A(29,30,31)           116.1102         estimate D2E/DX2                !
 ! A70   A(29,30,35)           121.8332         estimate D2E/DX2                !
 ! A71   A(31,30,35)           121.5987         estimate D2E/DX2                !
 ! A72   A(30,31,32)           121.8433         estimate D2E/DX2                !
 ! A73   A(30,31,34)           118.8572         estimate D2E/DX2                !
 ! A74   A(32,31,34)           119.292          estimate D2E/DX2                !
 ! A75   A(27,32,31)           122.0628         estimate D2E/DX2                !
 ! A76   A(27,32,33)           120.178          estimate D2E/DX2                !
 ! A77   A(31,32,33)           117.758          estimate D2E/DX2                !
 ! A78   A(30,35,36)           113.5357         estimate D2E/DX2                !
 ! A79   A(35,36,37)           109.8868         estimate D2E/DX2                !
 ! A80   A(35,36,38)           110.1011         estimate D2E/DX2                !
 ! A81   A(35,36,39)           108.2575         estimate D2E/DX2                !
 ! A82   A(37,36,38)           110.2717         estimate D2E/DX2                !
 ! A83   A(37,36,39)           109.0095         estimate D2E/DX2                !
 ! A84   A(38,36,39)           109.2748         estimate D2E/DX2                !
 ! A85   A(10,42,43)           122.5588         estimate D2E/DX2                !
 ! A86   A(10,42,45)           119.9059         estimate D2E/DX2                !
 ! A87   A(43,42,45)           117.5256         estimate D2E/DX2                !
 ! A88   A(7,43,42)            122.7571         estimate D2E/DX2                !
 ! A89   A(7,43,44)            122.0971         estimate D2E/DX2                !
 ! A90   A(42,43,44)           115.1362         estimate D2E/DX2                !
 ! A91   A(6,48,49)            109.3851         estimate D2E/DX2                !
 ! A92   A(6,48,50)            129.1112         estimate D2E/DX2                !
 ! A93   A(49,48,50)           121.5021         estimate D2E/DX2                !
 ! A94   A(1,49,4)             115.79           estimate D2E/DX2                !
 ! A95   A(1,49,48)            134.5416         estimate D2E/DX2                !
 ! A96   A(4,49,48)            109.6655         estimate D2E/DX2                !
 ! A97   A(3,51,52)             97.7273         estimate D2E/DX2                !
 ! A98   A(51,52,53)           111.4314         estimate D2E/DX2                !
 ! A99   A(51,52,55)           123.4624         estimate D2E/DX2                !
 ! A100  A(53,52,55)           125.1037         estimate D2E/DX2                !
 ! A101  A(2,53,52)            108.726          estimate D2E/DX2                !
 ! A102  A(2,53,54)            122.9876         estimate D2E/DX2                !
 ! A103  A(52,53,54)           128.2751         estimate D2E/DX2                !
 ! A104  A(52,55,56)           123.5726         estimate D2E/DX2                !
 ! A105  A(52,55,59)           130.2757         estimate D2E/DX2                !
 ! A106  A(56,55,59)           106.1501         estimate D2E/DX2                !
 ! A107  A(55,56,57)           103.2876         estimate D2E/DX2                !
 ! A108  A(56,57,58)           107.4956         estimate D2E/DX2                !
 ! A109  A(56,57,71)           118.0954         estimate D2E/DX2                !
 ! A110  A(58,57,71)           134.4067         estimate D2E/DX2                !
 ! A111  A(57,58,59)           109.8583         estimate D2E/DX2                !
 ! A112  A(57,58,62)           135.534          estimate D2E/DX2                !
 ! A113  A(59,58,62)           114.6076         estimate D2E/DX2                !
 ! A114  A(55,59,58)           113.2029         estimate D2E/DX2                !
 ! A115  A(55,59,60)           139.5675         estimate D2E/DX2                !
 ! A116  A(58,59,60)           107.2282         estimate D2E/DX2                !
 ! A117  A(59,60,61)           104.8024         estimate D2E/DX2                !
 ! A118  A(59,60,70)           127.3262         estimate D2E/DX2                !
 ! A119  A(61,60,70)           127.8704         estimate D2E/DX2                !
 ! A120  A(60,61,62)           115.0403         estimate D2E/DX2                !
 ! A121  A(60,61,63)           120.2528         estimate D2E/DX2                !
 ! A122  A(62,61,63)           124.7068         estimate D2E/DX2                !
 ! A123  A(58,62,61)            98.316          estimate D2E/DX2                !
 ! A124  A(61,63,64)           118.9316         estimate D2E/DX2                !
 ! A125  A(61,63,65)           121.9689         estimate D2E/DX2                !
 ! A126  A(64,63,65)           119.0911         estimate D2E/DX2                !
 ! A127  A(63,65,66)           117.3741         estimate D2E/DX2                !
 ! A128  A(65,66,67)           110.1296         estimate D2E/DX2                !
 ! A129  A(65,66,68)           110.0548         estimate D2E/DX2                !
 ! A130  A(65,66,69)           107.9768         estimate D2E/DX2                !
 ! A131  A(67,66,68)           111.0201         estimate D2E/DX2                !
 ! A132  A(67,66,69)           108.8461         estimate D2E/DX2                !
 ! A133  A(68,66,69)           108.7401         estimate D2E/DX2                !
 ! A134  A(57,71,72)           133.1713         estimate D2E/DX2                !
 ! A135  A(57,71,79)           113.6632         estimate D2E/DX2                !
 ! A136  A(72,71,79)           113.1655         estimate D2E/DX2                !
 ! A137  A(71,72,73)           126.2227         estimate D2E/DX2                !
 ! A138  A(71,72,75)           119.7656         estimate D2E/DX2                !
 ! A139  A(73,72,75)           114.0117         estimate D2E/DX2                !
 ! A140  A(72,75,76)           125.354          estimate D2E/DX2                !
 ! A141  A(72,75,78)           116.8113         estimate D2E/DX2                !
 ! A142  A(76,75,78)           117.8338         estimate D2E/DX2                !
 ! A143  A(75,76,77)           110.2924         estimate D2E/DX2                !
 ! A144  A(1,80,81)            111.5212         estimate D2E/DX2                !
 ! A145  A(1,80,82)            110.7716         estimate D2E/DX2                !
 ! A146  A(1,80,83)            110.79           estimate D2E/DX2                !
 ! A147  A(81,80,82)           107.8454         estimate D2E/DX2                !
 ! A148  A(81,80,83)           107.7816         estimate D2E/DX2                !
 ! A149  A(82,80,83)           107.9858         estimate D2E/DX2                !
 ! A150  A(1,84,85)            111.5621         estimate D2E/DX2                !
 ! A151  A(1,84,86)            110.8419         estimate D2E/DX2                !
 ! A152  A(1,84,87)            110.6923         estimate D2E/DX2                !
 ! A153  A(85,84,86)           107.8535         estimate D2E/DX2                !
 ! A154  A(85,84,87)           107.8455         estimate D2E/DX2                !
 ! A155  A(86,84,87)           107.8985         estimate D2E/DX2                !
 ! A156  L(72,73,74,5,-1)      180.7727         estimate D2E/DX2                !
 ! A157  L(72,73,74,5,-2)      179.6404         estimate D2E/DX2                !
 ! D1    D(49,1,2,3)            -0.4579         estimate D2E/DX2                !
 ! D2    D(49,1,2,53)          178.6976         estimate D2E/DX2                !
 ! D3    D(80,1,2,3)           114.5628         estimate D2E/DX2                !
 ! D4    D(80,1,2,53)          -66.2817         estimate D2E/DX2                !
 ! D5    D(84,1,2,3)          -116.0933         estimate D2E/DX2                !
 ! D6    D(84,1,2,53)           63.0622         estimate D2E/DX2                !
 ! D7    D(2,1,49,4)             0.7831         estimate D2E/DX2                !
 ! D8    D(2,1,49,48)         -178.5208         estimate D2E/DX2                !
 ! D9    D(80,1,49,4)         -114.5032         estimate D2E/DX2                !
 ! D10   D(80,1,49,48)          66.1929         estimate D2E/DX2                !
 ! D11   D(84,1,49,4)          116.253          estimate D2E/DX2                !
 ! D12   D(84,1,49,48)         -63.0508         estimate D2E/DX2                !
 ! D13   D(2,1,80,81)          -51.7428         estimate D2E/DX2                !
 ! D14   D(2,1,80,82)           68.3821         estimate D2E/DX2                !
 ! D15   D(2,1,80,83)         -171.7994         estimate D2E/DX2                !
 ! D16   D(49,1,80,81)          50.2984         estimate D2E/DX2                !
 ! D17   D(49,1,80,82)         170.4234         estimate D2E/DX2                !
 ! D18   D(49,1,80,83)         -69.7582         estimate D2E/DX2                !
 ! D19   D(84,1,80,81)         179.2761         estimate D2E/DX2                !
 ! D20   D(84,1,80,82)         -60.599          estimate D2E/DX2                !
 ! D21   D(84,1,80,83)          59.2195         estimate D2E/DX2                !
 ! D22   D(2,1,84,85)           50.66           estimate D2E/DX2                !
 ! D23   D(2,1,84,86)          170.8702         estimate D2E/DX2                !
 ! D24   D(2,1,84,87)          -69.4388         estimate D2E/DX2                !
 ! D25   D(49,1,84,85)         -51.6868         estimate D2E/DX2                !
 ! D26   D(49,1,84,86)          68.5235         estimate D2E/DX2                !
 ! D27   D(49,1,84,87)        -171.7855         estimate D2E/DX2                !
 ! D28   D(80,1,84,85)         179.615          estimate D2E/DX2                !
 ! D29   D(80,1,84,86)         -60.1748         estimate D2E/DX2                !
 ! D30   D(80,1,84,87)          59.5163         estimate D2E/DX2                !
 ! D31   D(1,2,3,4)              0.0272         estimate D2E/DX2                !
 ! D32   D(1,2,3,51)           179.7993         estimate D2E/DX2                !
 ! D33   D(53,2,3,4)          -179.3325         estimate D2E/DX2                !
 ! D34   D(53,2,3,51)            0.4395         estimate D2E/DX2                !
 ! D35   D(1,2,53,52)         -178.734          estimate D2E/DX2                !
 ! D36   D(1,2,53,54)            0.1344         estimate D2E/DX2                !
 ! D37   D(3,2,53,52)            0.459          estimate D2E/DX2                !
 ! D38   D(3,2,53,54)          179.3274         estimate D2E/DX2                !
 ! D39   D(2,3,4,5)            179.872          estimate D2E/DX2                !
 ! D40   D(2,3,4,49)             0.5011         estimate D2E/DX2                !
 ! D41   D(51,3,4,5)             0.1964         estimate D2E/DX2                !
 ! D42   D(51,3,4,49)         -179.1745         estimate D2E/DX2                !
 ! D43   D(2,3,51,52)           -1.0258         estimate D2E/DX2                !
 ! D44   D(4,3,51,52)          178.6406         estimate D2E/DX2                !
 ! D45   D(3,4,5,6)           -178.1403         estimate D2E/DX2                !
 ! D46   D(49,4,5,6)             1.2151         estimate D2E/DX2                !
 ! D47   D(3,4,49,1)            -0.8813         estimate D2E/DX2                !
 ! D48   D(3,4,49,48)          178.5918         estimate D2E/DX2                !
 ! D49   D(5,4,49,1)           179.5584         estimate D2E/DX2                !
 ! D50   D(5,4,49,48)           -0.9685         estimate D2E/DX2                !
 ! D51   D(4,5,6,7)            178.7036         estimate D2E/DX2                !
 ! D52   D(4,5,6,48)            -1.0778         estimate D2E/DX2                !
 ! D53   D(5,6,7,8)              1.2278         estimate D2E/DX2                !
 ! D54   D(5,6,7,43)          -178.5099         estimate D2E/DX2                !
 ! D55   D(48,6,7,8)          -179.0238         estimate D2E/DX2                !
 ! D56   D(48,6,7,43)            1.2385         estimate D2E/DX2                !
 ! D57   D(5,6,48,49)            0.6227         estimate D2E/DX2                !
 ! D58   D(5,6,48,50)         -179.8248         estimate D2E/DX2                !
 ! D59   D(7,6,48,49)         -179.1549         estimate D2E/DX2                !
 ! D60   D(7,6,48,50)            0.3975         estimate D2E/DX2                !
 ! D61   D(6,7,8,9)           -179.4552         estimate D2E/DX2                !
 ! D62   D(6,7,8,47)             0.8888         estimate D2E/DX2                !
 ! D63   D(43,7,8,9)             0.3002         estimate D2E/DX2                !
 ! D64   D(43,7,8,47)         -179.3559         estimate D2E/DX2                !
 ! D65   D(6,7,43,42)          179.0182         estimate D2E/DX2                !
 ! D66   D(6,7,43,44)            0.2008         estimate D2E/DX2                !
 ! D67   D(8,7,43,42)           -0.7415         estimate D2E/DX2                !
 ! D68   D(8,7,43,44)         -179.559          estimate D2E/DX2                !
 ! D69   D(7,8,9,10)             0.1953         estimate D2E/DX2                !
 ! D70   D(7,8,9,46)          -178.9152         estimate D2E/DX2                !
 ! D71   D(47,8,9,10)          179.8719         estimate D2E/DX2                !
 ! D72   D(47,8,9,46)            0.7615         estimate D2E/DX2                !
 ! D73   D(8,9,10,11)          179.3704         estimate D2E/DX2                !
 ! D74   D(8,9,10,42)           -0.2571         estimate D2E/DX2                !
 ! D75   D(46,9,10,11)          -1.54           estimate D2E/DX2                !
 ! D76   D(46,9,10,42)         178.8325         estimate D2E/DX2                !
 ! D77   D(9,10,11,12)         -27.6822         estimate D2E/DX2                !
 ! D78   D(9,10,11,27)         146.318          estimate D2E/DX2                !
 ! D79   D(42,10,11,12)        151.9215         estimate D2E/DX2                !
 ! D80   D(42,10,11,27)        -34.0784         estimate D2E/DX2                !
 ! D81   D(9,10,42,43)          -0.1828         estimate D2E/DX2                !
 ! D82   D(9,10,42,45)         178.6576         estimate D2E/DX2                !
 ! D83   D(11,10,42,43)       -179.8179         estimate D2E/DX2                !
 ! D84   D(11,10,42,45)         -0.9775         estimate D2E/DX2                !
 ! D85   D(10,11,12,13)        141.4931         estimate D2E/DX2                !
 ! D86   D(10,11,12,18)        -40.7443         estimate D2E/DX2                !
 ! D87   D(27,11,12,13)        -32.5415         estimate D2E/DX2                !
 ! D88   D(27,11,12,18)        145.2211         estimate D2E/DX2                !
 ! D89   D(10,11,27,28)        -36.7782         estimate D2E/DX2                !
 ! D90   D(10,11,27,32)        144.1325         estimate D2E/DX2                !
 ! D91   D(12,11,27,28)        137.2969         estimate D2E/DX2                !
 ! D92   D(12,11,27,32)        -41.7924         estimate D2E/DX2                !
 ! D93   D(11,12,13,14)         -0.8012         estimate D2E/DX2                !
 ! D94   D(11,12,13,15)        179.4804         estimate D2E/DX2                !
 ! D95   D(18,12,13,14)       -178.6845         estimate D2E/DX2                !
 ! D96   D(18,12,13,15)          1.5971         estimate D2E/DX2                !
 ! D97   D(11,12,18,17)       -179.5312         estimate D2E/DX2                !
 ! D98   D(11,12,18,19)         -1.3793         estimate D2E/DX2                !
 ! D99   D(13,12,18,17)         -1.6241         estimate D2E/DX2                !
 ! D100  D(13,12,18,19)        176.5278         estimate D2E/DX2                !
 ! D101  D(12,13,15,16)          1.8325         estimate D2E/DX2                !
 ! D102  D(12,13,15,26)       -178.8521         estimate D2E/DX2                !
 ! D103  D(14,13,15,16)       -177.8934         estimate D2E/DX2                !
 ! D104  D(14,13,15,26)          1.422          estimate D2E/DX2                !
 ! D105  D(13,15,16,17)         -5.0372         estimate D2E/DX2                !
 ! D106  D(13,15,16,21)       -177.2334         estimate D2E/DX2                !
 ! D107  D(26,15,16,17)        175.6465         estimate D2E/DX2                !
 ! D108  D(26,15,16,21)          3.4503         estimate D2E/DX2                !
 ! D109  D(15,16,17,18)          5.0127         estimate D2E/DX2                !
 ! D110  D(15,16,17,20)       -175.0288         estimate D2E/DX2                !
 ! D111  D(21,16,17,18)        177.2129         estimate D2E/DX2                !
 ! D112  D(21,16,17,20)         -2.8286         estimate D2E/DX2                !
 ! D113  D(15,16,21,22)        -88.1738         estimate D2E/DX2                !
 ! D114  D(17,16,21,22)        100.0766         estimate D2E/DX2                !
 ! D115  D(16,17,18,12)         -1.7763         estimate D2E/DX2                !
 ! D116  D(16,17,18,19)       -179.966          estimate D2E/DX2                !
 ! D117  D(20,17,18,12)        178.2653         estimate D2E/DX2                !
 ! D118  D(20,17,18,19)          0.0755         estimate D2E/DX2                !
 ! D119  D(16,21,22,23)        -60.3065         estimate D2E/DX2                !
 ! D120  D(16,21,22,24)         61.5515         estimate D2E/DX2                !
 ! D121  D(16,21,22,25)       -179.2229         estimate D2E/DX2                !
 ! D122  D(11,27,28,29)        179.8522         estimate D2E/DX2                !
 ! D123  D(11,27,28,41)         -1.8846         estimate D2E/DX2                !
 ! D124  D(32,27,28,29)         -1.0138         estimate D2E/DX2                !
 ! D125  D(32,27,28,41)        177.2495         estimate D2E/DX2                !
 ! D126  D(11,27,32,31)       -179.7347         estimate D2E/DX2                !
 ! D127  D(11,27,32,33)         -0.1455         estimate D2E/DX2                !
 ! D128  D(28,27,32,31)          1.1149         estimate D2E/DX2                !
 ! D129  D(28,27,32,33)       -179.2959         estimate D2E/DX2                !
 ! D130  D(27,28,29,30)         -2.3114         estimate D2E/DX2                !
 ! D131  D(27,28,29,40)        178.1376         estimate D2E/DX2                !
 ! D132  D(41,28,29,30)        179.3863         estimate D2E/DX2                !
 ! D133  D(41,28,29,40)         -0.1646         estimate D2E/DX2                !
 ! D134  D(28,29,30,31)          5.2966         estimate D2E/DX2                !
 ! D135  D(28,29,30,35)        177.6463         estimate D2E/DX2                !
 ! D136  D(40,29,30,31)       -175.1521         estimate D2E/DX2                !
 ! D137  D(40,29,30,35)         -2.8024         estimate D2E/DX2                !
 ! D138  D(29,30,31,32)         -5.1937         estimate D2E/DX2                !
 ! D139  D(29,30,31,34)        175.8112         estimate D2E/DX2                !
 ! D140  D(35,30,31,32)       -177.5628         estimate D2E/DX2                !
 ! D141  D(35,30,31,34)          3.442          estimate D2E/DX2                !
 ! D142  D(29,30,35,36)         92.1348         estimate D2E/DX2                !
 ! D143  D(31,30,35,36)        -95.9333         estimate D2E/DX2                !
 ! D144  D(30,31,32,27)          2.1036         estimate D2E/DX2                !
 ! D145  D(30,31,32,33)       -177.4951         estimate D2E/DX2                !
 ! D146  D(34,31,32,27)       -178.9055         estimate D2E/DX2                !
 ! D147  D(34,31,32,33)          1.4958         estimate D2E/DX2                !
 ! D148  D(30,35,36,37)        -61.9804         estimate D2E/DX2                !
 ! D149  D(30,35,36,38)         59.6694         estimate D2E/DX2                !
 ! D150  D(30,35,36,39)        179.0676         estimate D2E/DX2                !
 ! D151  D(10,42,43,7)           0.7192         estimate D2E/DX2                !
 ! D152  D(10,42,43,44)        179.6126         estimate D2E/DX2                !
 ! D153  D(45,42,43,7)        -178.1473         estimate D2E/DX2                !
 ! D154  D(45,42,43,44)          0.7461         estimate D2E/DX2                !
 ! D155  D(6,48,49,1)          179.5324         estimate D2E/DX2                !
 ! D156  D(6,48,49,4)            0.198          estimate D2E/DX2                !
 ! D157  D(50,48,49,1)          -0.0604         estimate D2E/DX2                !
 ! D158  D(50,48,49,4)        -179.3947         estimate D2E/DX2                !
 ! D159  D(3,51,52,53)           1.2975         estimate D2E/DX2                !
 ! D160  D(3,51,52,55)        -178.1554         estimate D2E/DX2                !
 ! D161  D(51,52,53,2)          -1.1729         estimate D2E/DX2                !
 ! D162  D(51,52,53,54)       -179.9638         estimate D2E/DX2                !
 ! D163  D(55,52,53,2)         178.2692         estimate D2E/DX2                !
 ! D164  D(55,52,53,54)         -0.5217         estimate D2E/DX2                !
 ! D165  D(51,52,55,56)       -179.8707         estimate D2E/DX2                !
 ! D166  D(51,52,55,59)          0.6642         estimate D2E/DX2                !
 ! D167  D(53,52,55,56)          0.7518         estimate D2E/DX2                !
 ! D168  D(53,52,55,59)       -178.7132         estimate D2E/DX2                !
 ! D169  D(52,55,56,57)       -178.8709         estimate D2E/DX2                !
 ! D170  D(59,55,56,57)          0.7042         estimate D2E/DX2                !
 ! D171  D(52,55,59,58)        179.055          estimate D2E/DX2                !
 ! D172  D(52,55,59,60)         -0.4256         estimate D2E/DX2                !
 ! D173  D(56,55,59,58)         -0.481          estimate D2E/DX2                !
 ! D174  D(56,55,59,60)       -179.9615         estimate D2E/DX2                !
 ! D175  D(55,56,57,58)         -0.7106         estimate D2E/DX2                !
 ! D176  D(55,56,57,71)        179.7613         estimate D2E/DX2                !
 ! D177  D(56,57,58,59)          0.4632         estimate D2E/DX2                !
 ! D178  D(56,57,58,62)       -179.4155         estimate D2E/DX2                !
 ! D179  D(71,57,58,59)        179.8805         estimate D2E/DX2                !
 ! D180  D(71,57,58,62)          0.0018         estimate D2E/DX2                !
 ! D181  D(56,57,71,72)       -179.4748         estimate D2E/DX2                !
 ! D182  D(56,57,71,79)          0.541          estimate D2E/DX2                !
 ! D183  D(58,57,71,72)          1.1552         estimate D2E/DX2                !
 ! D184  D(58,57,71,79)       -178.829          estimate D2E/DX2                !
 ! D185  D(57,58,59,55)          0.0118         estimate D2E/DX2                !
 ! D186  D(57,58,59,60)        179.6591         estimate D2E/DX2                !
 ! D187  D(62,58,59,55)        179.9184         estimate D2E/DX2                !
 ! D188  D(62,58,59,60)         -0.4344         estimate D2E/DX2                !
 ! D189  D(57,58,62,61)       -179.4338         estimate D2E/DX2                !
 ! D190  D(59,58,62,61)          0.6916         estimate D2E/DX2                !
 ! D191  D(55,59,60,61)        179.4401         estimate D2E/DX2                !
 ! D192  D(55,59,60,70)         -0.2184         estimate D2E/DX2                !
 ! D193  D(58,59,60,61)         -0.06           estimate D2E/DX2                !
 ! D194  D(58,59,60,70)       -179.7185         estimate D2E/DX2                !
 ! D195  D(59,60,61,62)          0.5372         estimate D2E/DX2                !
 ! D196  D(59,60,61,63)       -179.5272         estimate D2E/DX2                !
 ! D197  D(70,60,61,62)       -179.8068         estimate D2E/DX2                !
 ! D198  D(70,60,61,63)          0.1289         estimate D2E/DX2                !
 ! D199  D(60,61,62,58)         -0.7381         estimate D2E/DX2                !
 ! D200  D(63,61,62,58)        179.3295         estimate D2E/DX2                !
 ! D201  D(60,61,63,64)          0.6307         estimate D2E/DX2                !
 ! D202  D(60,61,63,65)        179.5685         estimate D2E/DX2                !
 ! D203  D(62,61,63,64)       -179.4403         estimate D2E/DX2                !
 ! D204  D(62,61,63,65)         -0.5025         estimate D2E/DX2                !
 ! D205  D(61,63,65,66)       -175.9951         estimate D2E/DX2                !
 ! D206  D(64,63,65,66)          2.9411         estimate D2E/DX2                !
 ! D207  D(63,65,66,67)        -62.1431         estimate D2E/DX2                !
 ! D208  D(63,65,66,68)         60.5744         estimate D2E/DX2                !
 ! D209  D(63,65,66,69)        179.1304         estimate D2E/DX2                !
 ! D210  D(57,71,72,73)          0.9476         estimate D2E/DX2                !
 ! D211  D(57,71,72,75)       -179.183          estimate D2E/DX2                !
 ! D212  D(79,71,72,73)       -179.0682         estimate D2E/DX2                !
 ! D213  D(79,71,72,75)          0.8013         estimate D2E/DX2                !
 ! D214  D(71,72,75,76)          0.269          estimate D2E/DX2                !
 ! D215  D(71,72,75,78)        179.8997         estimate D2E/DX2                !
 ! D216  D(73,72,75,76)       -179.8463         estimate D2E/DX2                !
 ! D217  D(73,72,75,78)         -0.2156         estimate D2E/DX2                !
 ! D218  D(72,75,76,77)         -1.3648         estimate D2E/DX2                !
 ! D219  D(78,75,76,77)        179.0079         estimate D2E/DX2                !
 --------------------------------------------------------------------------------
 Trust Radius=3.00D-01 FncErr=1.00D-07 GrdErr=1.00D-06 EigMax=2.50D+02 EigMin=1.00D-04
 Number of steps in this run=    480 maximum allowed number of steps=    522.
 GradGradGradGradGradGradGradGradGradGradGradGradGradGradGradGradGradGrad

 Stoichiometry    C43H32N2O6S4
 Framework group  C1[X(C43H32N2O6S4)]
 Deg. of freedom   255
 Full point group                 C1      NOp   1
 Largest Abelian subgroup         C1      NOp   1
 Largest concise Abelian subgroup C1      NOp   1
                         Standard orientation:                         
 ---------------------------------------------------------------------
 Center     Atomic      Atomic             Coordinates (Angstroms)
 Number     Number       Type             X           Y           Z
 ---------------------------------------------------------------------
      1          6           0        0.914118   -3.296195    0.531845
      2          6           0        1.999968   -2.275603    0.297494
      3          6           0        1.585668   -1.036289    0.027311
      4          6           0        0.248815   -1.033976    0.038520
      5         16           0       -0.861635   -0.109656   -0.153805
      6          6           0       -1.978992   -1.053480    0.111151
      7          6           0       -3.288415   -0.704651    0.091847
      8          6           0       -3.725009    0.540524   -0.195237
      9          6           0       -5.026729    0.871381   -0.199389
     10          6           0       -5.998395   -0.015998    0.087242
     11          7           0       -7.353807    0.307431    0.101514
     12          6           0       -7.768599    1.606218    0.384751
     13          6           0       -8.801762    2.194231   -0.251750
     14          1           0       -9.350676    1.653566   -1.041594
     15          6           0       -9.198858    3.442752    0.036862
     16          6           0       -8.566355    4.195902    0.954073
     17          6           0       -7.580610    3.587917    1.638049
     18          6           0       -7.182230    2.339064    1.351282
     19          1           0       -6.367546    1.905278    1.956025
     20          1           0       -7.084987    4.134012    2.459076
     21          8           0       -9.007776    5.450629    1.287161
     22          6           0       -8.479553    6.477377    0.469219
     23          1           0       -7.366873    6.493717    0.552844
     24          1           0       -8.788249    6.320927   -0.591969
     25          1           0       -8.886326    7.451305    0.829271
     26          1           0      -10.063024    3.869335   -0.501516
     27          6           0       -8.296916   -0.638910   -0.290497
     28          6           0       -8.083829   -1.513959   -1.293254
     29          6           0       -9.005181   -2.420222   -1.653431
     30          6           0      -10.177472   -2.538247   -1.004605
     31          6           0      -10.418717   -1.624909   -0.047311
     32          6           0       -9.499058   -0.716913    0.312533
     33          1           0       -9.753065   -0.026150    1.134834
     34          1           0      -11.396212   -1.636279    0.465797
     35          8           0      -11.137848   -3.432464   -1.402969
     36          6           0      -11.043198   -4.688921   -0.757125
     37          1           0      -10.065760   -5.168917   -1.001857
     38          1           0      -11.145719   -4.561367    0.347162
     39          1           0      -11.870137   -5.337307   -1.131228
     40          1           0       -8.792560   -3.093383   -2.501870
     41          1           0       -7.141128   -1.482320   -1.865891
     42          6           0       -5.567119   -1.258654    0.372352
     43          6           0       -4.266691   -1.590667    0.367894
     44          1           0       -4.050807   -2.639137    0.625486
     45          1           0       -6.293514   -2.045229    0.640831
     46          1           0       -5.288947    1.910139   -0.464220
     47          1           0       -3.028654    1.357652   -0.449233
     48          6           0       -1.500458   -2.288682    0.374267
     49          6           0       -0.169426   -2.266753    0.325896
     50          1           0       -2.052512   -3.212238    0.607525
     51         16           0        2.694445   -0.112135   -0.181102
     52          6           0        3.799886   -1.071572    0.051146
     53          6           0        3.331321   -2.310958    0.308596
     54          1           0        3.905756   -3.227982    0.520316
     55          6           0        5.104736   -0.726440    0.016818
     56         16           0        6.205449   -1.678555    0.244570
     57          6           0        7.417229   -0.831561    0.133028
     58          6           0        7.011544    0.420063   -0.139285
     59          6           0        5.679468    0.461105   -0.202390
     60          6           0        5.334013    1.726576   -0.467288
     61          6           0        6.502623    2.392443   -0.549548
     62         16           0        7.629322    1.619686   -0.361004
     63          6           0        6.513599    3.732290   -0.804159
     64          8           0        5.456656    4.312175   -0.942859
     65          8           0        7.685603    4.448587   -0.886933
     66          6           0        7.581508    5.846240   -1.068498
     67          1           0        7.072844    6.070925   -2.035619
     68          1           0        7.032097    6.303620   -0.211507
     69          1           0        8.613753    6.267310   -1.098043
     70          1           0        4.315608    2.130495   -0.584928
     71          6           0        8.624166   -1.420494    0.300840
     72          6           0        9.890269   -0.954660    0.275096
     73          6           0       10.256771    0.298332    0.077376
     74          7           0       10.593440    1.395495   -0.088345
     75          6           0       10.935744   -1.816918    0.468769
     76          8           0       10.822654   -3.151685    0.688689
     77          1           0        9.889950   -3.410436    0.711259
     78          8           0       12.052019   -1.340905    0.432890
     79          1           0        8.564400   -2.503157    0.499276
     80          6           0        0.890430   -4.383037   -0.544778
     81          1           0        0.863397   -3.943717   -1.568702
     82          1           0        1.795085   -5.028660   -0.474197
     83          1           0       -0.006262   -5.033703   -0.430033
     84          6           0        0.933776   -3.856964    1.955284
     85          1           0        0.957750   -3.042729    2.716015
     86          1           0        0.030007   -4.478660    2.148839
     87          1           0        1.830620   -4.498221    2.113301
 ---------------------------------------------------------------------
 Rotational constants (GHZ):           0.0847354           0.0123443           0.0109607
 Standard basis: 6-311G(d,p) (5D, 7F)
 There are  1269 symmetry adapted cartesian basis functions of A   symmetry.
 There are  1214 symmetry adapted basis functions of A   symmetry.
  1214 basis functions,  2072 primitive gaussians,  1269 cartesian basis functions
   208 alpha electrons      208 beta electrons
       nuclear repulsion energy      7567.3346520990 Hartrees.
 NAtoms=   87 NActive=   87 NUniq=   87 SFac= 1.00D+00 NAtFMM=   60 NAOKFM=T Big=T
 Integral buffers will be    131072 words long.
 Raffenetti 2 integral format.
 Two-electron integral symmetry is turned on.
 One-electron integrals computed using PRISM.
 NBasis=  1214 RedAO= T EigKep=  4.49D-05  NBF=  1214
 NBsUse=  1214 1.00D-06 EigRej= -1.00D+00 NBFU=  1214
 ExpMin= 7.71D-02 ExpMax= 9.34D+04 ExpMxC= 3.17D+03 IAcc=3 IRadAn=         5 AccDes= 0.00D+00
 Harris functional with IExCor=  402 and IRadAn=       5 diagonalized for initial guess.
 HarFok:  IExCor=  402 AccDes= 0.00D+00 IRadAn=         5 IDoV= 1 UseB2=F ITyADJ=14
 ICtDFT=  3500011 ScaDFX=  1.000000  1.000000  1.000000  1.000000
 FoFCou: FMM=F IPFlag=           0 FMFlag=      100000 FMFlg1=        2001
         NFxFlg=           0 DoJE=T BraDBF=F KetDBF=T FulRan=T
         wScrn=  0.000000 ICntrl=       500 IOpCl=  0 I1Cent=   200000004 NGrid=           0
         NMat0=    1 NMatS0=      1 NMatT0=    0 NMatD0=    1 NMtDS0=    0 NMtDT0=    0
 Petite list used in FoFCou.
 Requested convergence on RMS density matrix=1.00D-08 within 128 cycles.
 Requested convergence on MAX density matrix=1.00D-06.
 Requested convergence on             energy=1.00D-06.
 No special actions if energy rises.
 Integral accuracy reduced to 1.0D-05 until final iterations.
 Initial convergence to 1.0D-05 achieved.  Increase integral accuracy.
 SCF Done:  E(RB3LYP) =  -3811.25270228     A.U. after   17 cycles
            NFock= 17  Conv=0.38D-08     -V/T= 1.9994

 **********************************************************************

            Population analysis using the SCF Density.

 **********************************************************************

 Orbital symmetries:
       Occupied  (A) (A) (A) (A) (A) (A) (A) (A) (A) (A) (A) (A)
                 (A) (A) (A) (A) (A) (A) (A) (A) (A) (A) (A) (A)
                 (A) (A) (A) (A) (A) (A) (A) (A) (A) (A) (A) (A)
                 (A) (A) (A) (A) (A) (A) (A) (A) (A) (A) (A) (A)
                 (A) (A) (A) (A) (A) (A) (A) (A) (A) (A) (A) (A)
                 (A) (A) (A) (A) (A) (A) (A) (A) (A) (A) (A) (A)
                 (A) (A) (A) (A) (A) (A) (A) (A) (A) (A) (A) (A)
                 (A) (A) (A) (A) (A) (A) (A) (A) (A) (A) (A) (A)
                 (A) (A) (A) (A) (A) (A) (A) (A) (A) (A) (A) (A)
                 (A) (A) (A) (A) (A) (A) (A) (A) (A) (A) (A) (A)
                 (A) (A) (A) (A) (A) (A) (A) (A) (A) (A) (A) (A)
                 (A) (A) (A) (A) (A) (A) (A) (A) (A) (A) (A) (A)
                 (A) (A) (A) (A) (A) (A) (A) (A) (A) (A) (A) (A)
                 (A) (A) (A) (A) (A) (A) (A) (A) (A) (A) (A) (A)
                 (A) (A) (A) (A) (A) (A) (A) (A) (A) (A) (A) (A)
                 (A) (A) (A) (A) (A) (A) (A) (A) (A) (A) (A) (A)
                 (A) (A) (A) (A) (A) (A) (A) (A) (A) (A) (A) (A)
                 (A) (A) (A) (A)
       Virtual   (A) (A) (A) (A) (A) (A) (A) (A) (A) (A) (A) (A)
                 (A) (A) (A) (A) (A) (A) (A) (A) (A) (A) (A) (A)
                 (A) (A) (A) (A) (A) (A) (A) (A) (A) (A) (A) (A)
                 (A) (A) (A) (A) (A) (A) (A) (A) (A) (A) (A) (A)
                 (A) (A) (A) (A) (A) (A) (A) (A) (A) (A) (A) (A)
                 (A) (A) (A) (A) (A) (A) (A) (A) (A) (A) (A) (A)
                 (A) (A) (A) (A) (A) (A) (A) (A) (A) (A) (A) (A)
                 (A) (A) (A) (A) (A) (A) (A) (A) (A) (A) (A) (A)
                 (A) (A) (A) (A) (A) (A) (A) (A) (A) (A) (A) (A)
                 (A) (A) (A) (A) (A) (A) (A) (A) (A) (A) (A) (A)
                 (A) (A) (A) (A) (A) (A) (A) (A) (A) (A) (A) (A)
                 (A) (A) (A) (A) (A) (A) (A) (A) (A) (A) (A) (A)
                 (A) (A) (A) (A) (A) (A) (A) (A) (A) (A) (A) (A)
                 (A) (A) (A) (A) (A) (A) (A) (A) (A) (A) (A) (A)
                 (A) (A) (A) (A) (A) (A) (A) (A) (A) (A) (A) (A)
                 (A) (A) (A) (A) (A) (A) (A) (A) (A) (A) (A) (A)
                 (A) (A) (A) (A) (A) (A) (A) (A) (A) (A) (A) (A)
                 (A) (A) (A) (A) (A) (A) (A) (A) (A) (A) (A) (A)
                 (A) (A) (A) (A) (A) (A) (A) (A) (A) (A) (A) (A)
                 (A) (A) (A) (A) (A) (A) (A) (A) (A) (A) (A) (A)
                 (A) (A) (A) (A) (A) (A) (A) (A) (A) (A) (A) (A)
                 (A) (A) (A) (A) (A) (A) (A) (A) (A) (A) (A) (A)
                 (A) (A) (A) (A) (A) (A) (A) (A) (A) (A) (A) (A)
                 (A) (A) (A) (A) (A) (A) (A) (A) (A) (A) (A) (A)
                 (A) (A) (A) (A) (A) (A) (A) (A) (A) (A) (A) (A)
                 (A) (A) (A) (A) (A) (A) (A) (A) (A) (A) (A) (A)
                 (A) (A) (A) (A) (A) (A) (A) (A) (A) (A) (A) (A)
                 (A) (A) (A) (A) (A) (A) (A) (A) (A) (A) (A) (A)
                 (A) (A) (A) (A) (A) (A) (A) (A) (A) (A) (A) (A)
                 (A) (A) (A) (A) (A) (A) (A) (A) (A) (A) (A) (A)
                 (A) (A) (A) (A) (A) (A) (A) (A) (A) (A) (A) (A)
                 (A) (A) (A) (A) (A) (A) (A) (A) (A) (A) (A) (A)
                 (A) (A) (A) (A) (A) (A) (A) (A) (A) (A) (A) (A)
                 (A) (A) (A) (A) (A) (A) (A) (A) (A) (A) (A) (A)
                 (A) (A) (A) (A) (A) (A) (A) (A) (A) (A) (A) (A)
                 (A) (A) (A) (A) (A) (A) (A) (A) (A) (A) (A) (A)
                 (A) (A) (A) (A) (A) (A) (A) (A) (A) (A) (A) (A)
                 (A) (A) (A) (A) (A) (A) (A) (A) (A) (A) (A) (A)
                 (A) (A) (A) (A) (A) (A) (A) (A) (A) (A) (A) (A)
                 (A) (A) (A) (A) (A) (A) (A) (A) (A) (A) (A) (A)
                 (A) (A) (A) (A) (A) (A) (A) (A) (A) (A) (A) (A)
                 (A) (A) (A) (A) (A) (A) (A) (A) (A) (A) (A) (A)
                 (A) (A) (A) (A) (A) (A) (A) (A) (A) (A) (A) (A)
                 (A) (A) (A) (A) (A) (A) (A) (A) (A) (A) (A) (A)
                 (A) (A) (A) (A) (A) (A) (A) (A) (A) (A) (A) (A)
                 (A) (A) (A) (A) (A) (A) (A) (A) (A) (A) (A) (A)
                 (A) (A) (A) (A) (A) (A) (A) (A) (A) (A) (A) (A)
                 (A) (A) (A) (A) (A) (A) (A) (A) (A) (A) (A) (A)
                 (A) (A) (A) (A) (A) (A) (A) (A) (A) (A) (A) (A)
                 (A) (A) (A) (A) (A) (A) (A) (A) (A) (A) (A) (A)
                 (A) (A) (A) (A) (A) (A) (A) (A) (A) (A) (A) (A)
                 (A) (A) (A) (A) (A) (A) (A) (A) (A) (A) (A) (A)
                 (A) (A) (A) (A) (A) (A) (A) (A) (A) (A) (A) (A)
                 (A) (A) (A) (A) (A) (A) (A) (A) (A) (A) (A) (A)
                 (A) (A) (A) (A) (A) (A) (A) (A) (A) (A) (A) (A)
                 (A) (A) (A) (A) (A) (A) (A) (A) (A) (A) (A) (A)
                 (A) (A) (A) (A) (A) (A) (A) (A) (A) (A) (A) (A)
                 (A) (A) (A) (A) (A) (A) (A) (A) (A) (A) (A) (A)
                 (A) (A) (A) (A) (A) (A) (A) (A) (A) (A) (A) (A)
                 (A) (A) (A) (A) (A) (A) (A) (A) (A) (A) (A) (A)
                 (A) (A) (A) (A) (A) (A) (A) (A) (A) (A) (A) (A)
                 (A) (A) (A) (A) (A) (A) (A) (A) (A) (A) (A) (A)
                 (A) (A) (A) (A) (A) (A) (A) (A) (A) (A) (A) (A)
                 (A) (A) (A) (A) (A) (A) (A) (A) (A) (A) (A) (A)
                 (A) (A) (A) (A) (A) (A) (A) (A) (A) (A) (A) (A)
                 (A) (A) (A) (A) (A) (A) (A) (A) (A) (A) (A) (A)
                 (A) (A) (A) (A) (A) (A) (A) (A) (A) (A) (A) (A)
                 (A) (A) (A) (A) (A) (A) (A) (A) (A) (A) (A) (A)
                 (A) (A) (A) (A) (A) (A) (A) (A) (A) (A) (A) (A)
                 (A) (A) (A) (A) (A) (A) (A) (A) (A) (A) (A) (A)
                 (A) (A) (A) (A) (A) (A) (A) (A) (A) (A) (A) (A)
                 (A) (A) (A) (A) (A) (A) (A) (A) (A) (A) (A) (A)
                 (A) (A) (A) (A) (A) (A) (A) (A) (A) (A) (A) (A)
                 (A) (A) (A) (A) (A) (A) (A) (A) (A) (A) (A) (A)
                 (A) (A) (A) (A) (A) (A) (A) (A) (A) (A) (A) (A)
                 (A) (A) (A) (A) (A) (A) (A) (A) (A) (A) (A) (A)
                 (A) (A) (A) (A) (A) (A) (A) (A) (A) (A) (A) (A)
                 (A) (A) (A) (A) (A) (A) (A) (A) (A) (A) (A) (A)
                 (A) (A) (A) (A) (A) (A) (A) (A) (A) (A) (A) (A)
                 (A) (A) (A) (A) (A) (A) (A) (A) (A) (A) (A) (A)
                 (A) (A) (A) (A) (A) (A) (A) (A) (A) (A) (A) (A)
                 (A) (A) (A) (A) (A) (A) (A) (A) (A) (A) (A) (A)
                 (A) (A) (A) (A) (A) (A) (A) (A) (A) (A) (A) (A)
                 (A) (A) (A) (A) (A) (A) (A) (A) (A) (A)
 The electronic state is 1-A.
 Alpha  occ. eigenvalues --  -88.89739 -88.88780 -88.87621 -88.86382 -19.16485
 Alpha  occ. eigenvalues --  -19.16326 -19.13745 -19.13595 -19.09899 -19.07971
 Alpha  occ. eigenvalues --  -14.35371 -14.29510 -10.30109 -10.28696 -10.23093
 Alpha  occ. eigenvalues --  -10.23019 -10.22999 -10.22917 -10.21938 -10.21842
 Alpha  occ. eigenvalues --  -10.21788 -10.21740 -10.21302 -10.21109 -10.21088
 Alpha  occ. eigenvalues --  -10.20983 -10.20342 -10.19951 -10.19481 -10.19294
 Alpha  occ. eigenvalues --  -10.19285 -10.19104 -10.19065 -10.18991 -10.18804
 Alpha  occ. eigenvalues --  -10.18749 -10.18637 -10.18533 -10.18519 -10.18248
 Alpha  occ. eigenvalues --  -10.17786 -10.17509 -10.17463 -10.17377 -10.17373
 Alpha  occ. eigenvalues --  -10.17329 -10.17202 -10.17189 -10.17177 -10.17159
 Alpha  occ. eigenvalues --  -10.17133 -10.17097 -10.17078 -10.17015 -10.17011
 Alpha  occ. eigenvalues --   -8.00030  -7.99101  -7.97934  -7.97930  -5.96171
 Alpha  occ. eigenvalues --   -5.95704  -5.95621  -5.95246  -5.94812  -5.94646
 Alpha  occ. eigenvalues --   -5.94078  -5.94009  -5.93644  -5.93487  -5.93479
 Alpha  occ. eigenvalues --   -5.93356  -1.11092  -1.10183  -1.06591  -1.06378
 Alpha  occ. eigenvalues --   -1.06241  -1.02865  -1.02004  -1.01233  -1.00799
 Alpha  occ. eigenvalues --   -0.99994  -0.99596  -0.91084  -0.90687  -0.89576
 Alpha  occ. eigenvalues --   -0.89263  -0.87820  -0.87319  -0.84190  -0.83027
 Alpha  occ. eigenvalues --   -0.82659  -0.80857  -0.79245  -0.78787  -0.78576
 Alpha  occ. eigenvalues --   -0.77788  -0.77178  -0.76827  -0.76540  -0.75775
 Alpha  occ. eigenvalues --   -0.74311  -0.73447  -0.71100  -0.70679  -0.70230
 Alpha  occ. eigenvalues --   -0.68542  -0.68242  -0.66893  -0.66125  -0.64529
 Alpha  occ. eigenvalues --   -0.64272  -0.63642  -0.63035  -0.62561  -0.61732
 Alpha  occ. eigenvalues --   -0.61251  -0.60728  -0.59544  -0.59394  -0.59174
 Alpha  occ. eigenvalues --   -0.57098  -0.56862  -0.56571  -0.56376  -0.55586
 Alpha  occ. eigenvalues --   -0.54764  -0.53809  -0.53762  -0.53050  -0.52464
 Alpha  occ. eigenvalues --   -0.51815  -0.51242  -0.50801  -0.50593  -0.49468
 Alpha  occ. eigenvalues --   -0.49131  -0.48747  -0.48336  -0.48015  -0.47063
 Alpha  occ. eigenvalues --   -0.46997  -0.46847  -0.46830  -0.46441  -0.46218
 Alpha  occ. eigenvalues --   -0.45388  -0.45099  -0.44932  -0.44848  -0.44770
 Alpha  occ. eigenvalues --   -0.44657  -0.44562  -0.44295  -0.43793  -0.43645
 Alpha  occ. eigenvalues --   -0.43436  -0.43139  -0.42983  -0.42931  -0.42882
 Alpha  occ. eigenvalues --   -0.42637  -0.42186  -0.41219  -0.41112  -0.40823
 Alpha  occ. eigenvalues --   -0.40676  -0.40191  -0.39955  -0.39657  -0.39604
 Alpha  occ. eigenvalues --   -0.39507  -0.39086  -0.38825  -0.38093  -0.37700
 Alpha  occ. eigenvalues --   -0.36877  -0.36795  -0.36543  -0.36129  -0.35984
 Alpha  occ. eigenvalues --   -0.35570  -0.35383  -0.35319  -0.35133  -0.35109
 Alpha  occ. eigenvalues --   -0.34761  -0.34370  -0.33852  -0.31488  -0.30976
 Alpha  occ. eigenvalues --   -0.30915  -0.30696  -0.29549  -0.28764  -0.28463
 Alpha  occ. eigenvalues --   -0.28396  -0.28317  -0.28127  -0.28010  -0.27970
 Alpha  occ. eigenvalues --   -0.27635  -0.27131  -0.26787  -0.26517  -0.26204
 Alpha  occ. eigenvalues --   -0.23994  -0.20887  -0.18666
 Alpha virt. eigenvalues --   -0.10423  -0.06114  -0.04966  -0.02654  -0.01738
 Alpha virt. eigenvalues --   -0.01375  -0.00684  -0.00390  -0.00070   0.00364
 Alpha virt. eigenvalues --    0.01180   0.01633   0.02355   0.02728   0.02942
 Alpha virt. eigenvalues --    0.02996   0.03521   0.03984   0.04159   0.04710
 Alpha virt. eigenvalues --    0.05178   0.05309   0.05643   0.05704   0.06098
 Alpha virt. eigenvalues --    0.06123   0.06208   0.06381   0.06683   0.06813
 Alpha virt. eigenvalues --    0.07025   0.07455   0.07561   0.08198   0.08507
 Alpha virt. eigenvalues --    0.08851   0.09198   0.09784   0.09962   0.10108
 Alpha virt. eigenvalues --    0.10198   0.10382   0.10514   0.10531   0.10884
 Alpha virt. eigenvalues --    0.10931   0.11121   0.11294   0.11821   0.11825
 Alpha virt. eigenvalues --    0.11954   0.12264   0.12610   0.12727   0.13391
 Alpha virt. eigenvalues --    0.13573   0.14129   0.14286   0.14545   0.15087
 Alpha virt. eigenvalues --    0.15364   0.15433   0.15896   0.16357   0.16887
 Alpha virt. eigenvalues --    0.17060   0.17623   0.17747   0.18189   0.18777
 Alpha virt. eigenvalues --    0.18932   0.19404   0.19494   0.20155   0.21221
 Alpha virt. eigenvalues --    0.21571   0.21891   0.22337   0.22556   0.22773
 Alpha virt. eigenvalues --    0.22963   0.23020   0.24340   0.24466   0.24650
 Alpha virt. eigenvalues --    0.25038   0.25215   0.25885   0.25940   0.26651
 Alpha virt. eigenvalues --    0.27046   0.27942   0.28101   0.28156   0.28388
 Alpha virt. eigenvalues --    0.28588   0.28774   0.28870   0.29149   0.29539
 Alpha virt. eigenvalues --    0.30237   0.30390   0.31014   0.31087   0.31230
 Alpha virt. eigenvalues --    0.31709   0.31779   0.32241   0.32959   0.33146
 Alpha virt. eigenvalues --    0.33443   0.33602   0.34425   0.34762   0.34898
 Alpha virt. eigenvalues --    0.35081   0.35397   0.35657   0.35795   0.36082
 Alpha virt. eigenvalues --    0.36284   0.36681   0.37113   0.37290   0.37670
 Alpha virt. eigenvalues --    0.37975   0.38497   0.38883   0.38945   0.39113
 Alpha virt. eigenvalues --    0.39171   0.39339   0.39864   0.39888   0.40249
 Alpha virt. eigenvalues --    0.40397   0.40529   0.40922   0.41027   0.41180
 Alpha virt. eigenvalues --    0.41385   0.41729   0.41855   0.42035   0.42633
 Alpha virt. eigenvalues --    0.42983   0.43015   0.43262   0.43384   0.43504
 Alpha virt. eigenvalues --    0.43597   0.43830   0.44280   0.44379   0.44820
 Alpha virt. eigenvalues --    0.45115   0.45246   0.45419   0.45440   0.45755
 Alpha virt. eigenvalues --    0.46237   0.46389   0.46551   0.46809   0.46965
 Alpha virt. eigenvalues --    0.47176   0.47603   0.47931   0.48152   0.48268
 Alpha virt. eigenvalues --    0.48430   0.48881   0.49090   0.49258   0.49302
 Alpha virt. eigenvalues --    0.49655   0.49724   0.49998   0.50511   0.50628
 Alpha virt. eigenvalues --    0.51147   0.51246   0.51382   0.51713   0.52073
 Alpha virt. eigenvalues --    0.52277   0.52485   0.53030   0.53185   0.53619
 Alpha virt. eigenvalues --    0.53649   0.54240   0.54590   0.54724   0.54962
 Alpha virt. eigenvalues --    0.55234   0.55449   0.55547   0.55609   0.55781
 Alpha virt. eigenvalues --    0.55906   0.56032   0.56143   0.56186   0.56458
 Alpha virt. eigenvalues --    0.56630   0.57079   0.57299   0.57725   0.58310
 Alpha virt. eigenvalues --    0.58594   0.58774   0.59118   0.59303   0.59335
 Alpha virt. eigenvalues --    0.59620   0.59778   0.59901   0.59987   0.60213
 Alpha virt. eigenvalues --    0.60379   0.60499   0.60687   0.60892   0.61067
 Alpha virt. eigenvalues --    0.61166   0.61632   0.61945   0.62234   0.62716
 Alpha virt. eigenvalues --    0.62951   0.63089   0.63411   0.63657   0.63791
 Alpha virt. eigenvalues --    0.64205   0.64348   0.64773   0.65133   0.65245
 Alpha virt. eigenvalues --    0.65577   0.65966   0.66611   0.66893   0.67157
 Alpha virt. eigenvalues --    0.67425   0.68301   0.68427   0.69213   0.69541
 Alpha virt. eigenvalues --    0.69730   0.70147   0.70174   0.70367   0.70816
 Alpha virt. eigenvalues --    0.71060   0.71484   0.71904   0.72142   0.72365
 Alpha virt. eigenvalues --    0.72578   0.73249   0.73488   0.73851   0.73997
 Alpha virt. eigenvalues --    0.74308   0.75299   0.75824   0.75835   0.75986
 Alpha virt. eigenvalues --    0.76215   0.76370   0.77183   0.77393   0.77673
 Alpha virt. eigenvalues --    0.77949   0.78242   0.78776   0.79113   0.79226
 Alpha virt. eigenvalues --    0.79880   0.80262   0.81275   0.81293   0.81659
 Alpha virt. eigenvalues --    0.81873   0.82330   0.82573   0.82701   0.83026
 Alpha virt. eigenvalues --    0.83152   0.83344   0.83562   0.83655   0.84148
 Alpha virt. eigenvalues --    0.84567   0.85012   0.85147   0.85410   0.86074
 Alpha virt. eigenvalues --    0.86102   0.86421   0.86593   0.86739   0.86836
 Alpha virt. eigenvalues --    0.87029   0.87558   0.88253   0.88743   0.89074
 Alpha virt. eigenvalues --    0.89524   0.90005   0.90344   0.90740   0.91184
 Alpha virt. eigenvalues --    0.91314   0.92471   0.92849   0.93003   0.93083
 Alpha virt. eigenvalues --    0.93318   0.94136   0.94546   0.94903   0.95286
 Alpha virt. eigenvalues --    0.95608   0.96015   0.96275   0.96651   0.97673
 Alpha virt. eigenvalues --    0.97765   0.98216   0.98305   0.98434   0.99579
 Alpha virt. eigenvalues --    1.00243   1.00499   1.01064   1.01653   1.01791
 Alpha virt. eigenvalues --    1.01854   1.02344   1.02648   1.02899   1.02988
 Alpha virt. eigenvalues --    1.03524   1.04360   1.05437   1.05925   1.06066
 Alpha virt. eigenvalues --    1.06856   1.07050   1.07404   1.07796   1.08142
 Alpha virt. eigenvalues --    1.08484   1.08763   1.09439   1.09533   1.09986
 Alpha virt. eigenvalues --    1.10061   1.10334   1.10968   1.11272   1.11564
 Alpha virt. eigenvalues --    1.11847   1.12086   1.12682   1.12874   1.13243
 Alpha virt. eigenvalues --    1.13458   1.13635   1.14111   1.14281   1.14752
 Alpha virt. eigenvalues --    1.15326   1.15550   1.15630   1.15969   1.16639
 Alpha virt. eigenvalues --    1.17042   1.17433   1.17659   1.18206   1.18369
 Alpha virt. eigenvalues --    1.19620   1.20689   1.21154   1.21888   1.22175
 Alpha virt. eigenvalues --    1.22246   1.22301   1.22606   1.22977   1.23604
 Alpha virt. eigenvalues --    1.24825   1.25586   1.26981   1.27568   1.28037
 Alpha virt. eigenvalues --    1.28763   1.29754   1.29780   1.30103   1.30286
 Alpha virt. eigenvalues --    1.30799   1.31435   1.32050   1.32457   1.33507
 Alpha virt. eigenvalues --    1.34093   1.34505   1.34874   1.35177   1.35473
 Alpha virt. eigenvalues --    1.35682   1.36732   1.37635   1.38046   1.39691
 Alpha virt. eigenvalues --    1.40770   1.40804   1.41156   1.41342   1.41531
 Alpha virt. eigenvalues --    1.41997   1.42052   1.42235   1.42461   1.42754
 Alpha virt. eigenvalues --    1.42879   1.43197   1.44060   1.44441   1.44993
 Alpha virt. eigenvalues --    1.45265   1.45360   1.45476   1.45744   1.45905
 Alpha virt. eigenvalues --    1.46674   1.46810   1.46872   1.47036   1.47418
 Alpha virt. eigenvalues --    1.47701   1.48082   1.48164   1.48504   1.48975
 Alpha virt. eigenvalues --    1.49456   1.49681   1.49880   1.50251   1.50780
 Alpha virt. eigenvalues --    1.51399   1.51809   1.52925   1.53140   1.53445
 Alpha virt. eigenvalues --    1.53729   1.53941   1.54007   1.54495   1.54864
 Alpha virt. eigenvalues --    1.55945   1.56587   1.56968   1.57147   1.57509
 Alpha virt. eigenvalues --    1.57960   1.58270   1.58607   1.58780   1.59209
 Alpha virt. eigenvalues --    1.59373   1.59467   1.59670   1.59944   1.60061
 Alpha virt. eigenvalues --    1.60345   1.60735   1.60854   1.61394   1.61623
 Alpha virt. eigenvalues --    1.62134   1.62984   1.63453   1.63864   1.63942
 Alpha virt. eigenvalues --    1.64184   1.64813   1.65260   1.65535   1.65892
 Alpha virt. eigenvalues --    1.66086   1.66260   1.66413   1.66577   1.66993
 Alpha virt. eigenvalues --    1.67118   1.67364   1.67897   1.68256   1.68858
 Alpha virt. eigenvalues --    1.69073   1.69383   1.69970   1.70363   1.70595
 Alpha virt. eigenvalues --    1.70806   1.71551   1.71878   1.72733   1.72773
 Alpha virt. eigenvalues --    1.72920   1.73015   1.73349   1.73572   1.74001
 Alpha virt. eigenvalues --    1.74721   1.75036   1.75451   1.75716   1.76236
 Alpha virt. eigenvalues --    1.76494   1.76967   1.77675   1.77710   1.77954
 Alpha virt. eigenvalues --    1.78575   1.78671   1.78802   1.79706   1.79981
 Alpha virt. eigenvalues --    1.80465   1.82252   1.82553   1.83681   1.83737
 Alpha virt. eigenvalues --    1.84964   1.85537   1.86095   1.86251   1.86383
 Alpha virt. eigenvalues --    1.86603   1.86975   1.87334   1.87765   1.88405
 Alpha virt. eigenvalues --    1.88823   1.90122   1.90604   1.91050   1.91179
 Alpha virt. eigenvalues --    1.91410   1.91808   1.91997   1.92470   1.93089
 Alpha virt. eigenvalues --    1.93419   1.93744   1.94398   1.94851   1.95247
 Alpha virt. eigenvalues --    1.95646   1.96036   1.96260   1.96502   1.97082
 Alpha virt. eigenvalues --    1.97270   1.97451   1.97783   1.98411   1.98909
 Alpha virt. eigenvalues --    1.99045   1.99291   1.99452   1.99705   2.00165
 Alpha virt. eigenvalues --    2.00633   2.01216   2.01780   2.01931   2.02256
 Alpha virt. eigenvalues --    2.02489   2.03270   2.03862   2.04314   2.04649
 Alpha virt. eigenvalues --    2.04731   2.05019   2.05167   2.05694   2.05802
 Alpha virt. eigenvalues --    2.05861   2.06256   2.07122   2.07151   2.07527
 Alpha virt. eigenvalues --    2.08294   2.08772   2.09012   2.09300   2.09604
 Alpha virt. eigenvalues --    2.09643   2.09895   2.10516   2.10686   2.11882
 Alpha virt. eigenvalues --    2.12607   2.12873   2.13004   2.14198   2.14258
 Alpha virt. eigenvalues --    2.14411   2.14909   2.16102   2.16249   2.17620
 Alpha virt. eigenvalues --    2.17799   2.17892   2.18671   2.19388   2.21386
 Alpha virt. eigenvalues --    2.22186   2.22831   2.23859   2.24210   2.25051
 Alpha virt. eigenvalues --    2.25355   2.26245   2.26473   2.26993   2.27280
 Alpha virt. eigenvalues --    2.27545   2.27838   2.28624   2.28793   2.29142
 Alpha virt. eigenvalues --    2.29726   2.29899   2.30183   2.32895   2.33335
 Alpha virt. eigenvalues --    2.33959   2.34481   2.34994   2.35183   2.35666
 Alpha virt. eigenvalues --    2.36904   2.36929   2.37434   2.38247   2.38648
 Alpha virt. eigenvalues --    2.39022   2.39593   2.39817   2.40098   2.40710
 Alpha virt. eigenvalues --    2.41374   2.41839   2.42054   2.42635   2.43130
 Alpha virt. eigenvalues --    2.43235   2.43721   2.43871   2.43980   2.44117
 Alpha virt. eigenvalues --    2.45115   2.46265   2.46874   2.47295   2.48181
 Alpha virt. eigenvalues --    2.49134   2.49227   2.49468   2.49756   2.49867
 Alpha virt. eigenvalues --    2.50190   2.50421   2.51078   2.51182   2.52817
 Alpha virt. eigenvalues --    2.53264   2.53522   2.53959   2.54320   2.55171
 Alpha virt. eigenvalues --    2.56571   2.57478   2.57897   2.58625   2.58951
 Alpha virt. eigenvalues --    2.59982   2.60201   2.60871   2.61144   2.61383
 Alpha virt. eigenvalues --    2.61697   2.61982   2.62095   2.62496   2.62552
 Alpha virt. eigenvalues --    2.62831   2.63291   2.64271   2.65498   2.65884
 Alpha virt. eigenvalues --    2.66247   2.67168   2.67308   2.67569   2.67922
 Alpha virt. eigenvalues --    2.67998   2.68450   2.68932   2.69212   2.69393
 Alpha virt. eigenvalues --    2.69914   2.70288   2.71088   2.71431   2.71550
 Alpha virt. eigenvalues --    2.72210   2.73114   2.73372   2.73471   2.74272
 Alpha virt. eigenvalues --    2.74776   2.75221   2.75693   2.75872   2.75925
 Alpha virt. eigenvalues --    2.76467   2.76967   2.78271   2.79194   2.79893
 Alpha virt. eigenvalues --    2.79990   2.80208   2.80454   2.80679   2.81946
 Alpha virt. eigenvalues --    2.82213   2.82530   2.83381   2.83710   2.84449
 Alpha virt. eigenvalues --    2.84634   2.86463   2.87490   2.87916   2.88273
 Alpha virt. eigenvalues --    2.88647   2.89119   2.89564   2.89835   2.90839
 Alpha virt. eigenvalues --    2.91066   2.91586   2.92065   2.92723   2.92953
 Alpha virt. eigenvalues --    2.93477   2.93681   2.94018   2.94458   2.95312
 Alpha virt. eigenvalues --    2.96178   2.96387   2.97287   2.98512   2.99284
 Alpha virt. eigenvalues --    3.00116   3.00525   3.00811   3.01033   3.01086
 Alpha virt. eigenvalues --    3.01854   3.02576   3.02682   3.03886   3.04886
 Alpha virt. eigenvalues --    3.05412   3.05957   3.06648   3.07368   3.11183
 Alpha virt. eigenvalues --    3.11318   3.11915   3.12278   3.12547   3.13023
 Alpha virt. eigenvalues --    3.14412   3.15294   3.15785   3.16504   3.18741
 Alpha virt. eigenvalues --    3.19423   3.19603   3.19894   3.22241   3.22832
[...]
 Alpha virt. eigenvalues --    1.00172   1.00502   1.00874   1.01748   1.01877
 Alpha virt. eigenvalues --    1.02509   1.02726   1.03201   1.03445   1.03745
 Alpha virt. eigenvalues --    1.04600   1.05440   1.05589   1.05971   1.06530
 Alpha virt. eigenvalues --    1.06613   1.06970   1.07136   1.07356   1.08029
 Alpha virt. eigenvalues --    1.08824   1.09054   1.09142   1.09383   1.09466
 Alpha virt. eigenvalues --    1.10003   1.10347   1.11021   1.11448   1.12045
 Alpha virt. eigenvalues --    1.12253   1.12824   1.13097   1.13422   1.13540
 Alpha virt. eigenvalues --    1.14225   1.14462   1.15535   1.16164   1.16881
 Alpha virt. eigenvalues --    1.17586   1.18335   1.18827   1.19161   1.20027
 Alpha virt. eigenvalues --    1.20802   1.21620   1.21855   1.22261   1.23351
 Alpha virt. eigenvalues --    1.23661   1.24107   1.24199   1.24225   1.24538
 Alpha virt. eigenvalues --    1.25340   1.26430   1.27168   1.28107   1.28703
 Alpha virt. eigenvalues --    1.29302   1.30383   1.31388   1.32437   1.33132
 Alpha virt. eigenvalues --    1.33489   1.34771   1.34900   1.34984   1.35240
 Alpha virt. eigenvalues --    1.35757   1.36071   1.36399   1.36580   1.37752
 Alpha virt. eigenvalues --    1.37882   1.38896   1.39161   1.39510   1.39725
 Alpha virt. eigenvalues --    1.40070   1.41652   1.41985   1.42031   1.42141
 Alpha virt. eigenvalues --    1.42308   1.42421   1.42561   1.42930   1.43054
 Alpha virt. eigenvalues --    1.43701   1.44106   1.44673   1.44993   1.45223
 Alpha virt. eigenvalues --    1.45549   1.45629   1.45922   1.46078   1.46762
 Alpha virt. eigenvalues --    1.46974   1.47503   1.47619   1.48035   1.48215
 Alpha virt. eigenvalues --    1.48740   1.48897   1.49326   1.49983   1.50437
 Alpha virt. eigenvalues --    1.51199   1.51534   1.52174   1.52282   1.53178
 Alpha virt. eigenvalues --    1.53298   1.53602   1.53899   1.54115   1.54482
 Alpha virt. eigenvalues --    1.55194   1.55404   1.55555   1.55819   1.56009
 Alpha virt. eigenvalues --    1.56560   1.56815   1.57030   1.57256   1.57302
 Alpha virt. eigenvalues --    1.57527   1.57587   1.58028   1.58117   1.58296
 Alpha virt. eigenvalues --    1.58412   1.58595   1.58827   1.58935   1.59244
 Alpha virt. eigenvalues --    1.59641   1.59773   1.60523   1.60664   1.61128
 Alpha virt. eigenvalues --    1.61580   1.62808   1.62998   1.63511   1.63962
 Alpha virt. eigenvalues --    1.64283   1.64401   1.64749   1.64858   1.65202
 Alpha virt. eigenvalues --    1.65554   1.65645   1.65761   1.66064   1.66563
 Alpha virt. eigenvalues --    1.66763   1.66825   1.67270   1.68057   1.68169
 Alpha virt. eigenvalues --    1.68430   1.68635   1.69255   1.69487   1.70068
 Alpha virt. eigenvalues --    1.70777   1.71675   1.72036   1.72056   1.72346
 Alpha virt. eigenvalues --    1.72594   1.72884   1.73261   1.73577   1.73878
 Alpha virt. eigenvalues --    1.73939   1.74681   1.74892   1.75902   1.76190
 Alpha virt. eigenvalues --    1.76523   1.76861   1.76949   1.77125   1.77648
 Alpha virt. eigenvalues --    1.77962   1.78205   1.78896   1.80250   1.81089
 Alpha virt. eigenvalues --    1.82146   1.82338   1.83411   1.83795   1.84124
 Alpha virt. eigenvalues --    1.84405   1.84466   1.84602   1.85496   1.86175
 Alpha virt. eigenvalues --    1.86848   1.86953   1.87085   1.87911   1.88452
 Alpha virt. eigenvalues --    1.88741   1.89018   1.89364   1.89545   1.89672
 Alpha virt. eigenvalues --    1.90052   1.90463   1.90673   1.90891   1.91087
 Alpha virt. eigenvalues --    1.91382   1.91786   1.92303   1.92783   1.93284
 Alpha virt. eigenvalues --    1.93813   1.93881   1.94885   1.94913   1.95372
 Alpha virt. eigenvalues --    1.95890   1.96223   1.96463   1.97075   1.97416
 Alpha virt. eigenvalues --    1.98478   1.98781   1.99370   1.99490   1.99650
 Alpha virt. eigenvalues --    1.99926   2.00301   2.00535   2.00880   2.01243
 Alpha virt. eigenvalues --    2.01490   2.01747   2.02894   2.03166   2.03891
 Alpha virt. eigenvalues --    2.04326   2.05075   2.05197   2.05318   2.05628
 Alpha virt. eigenvalues --    2.06050   2.06143   2.06383   2.06651   2.06937
 Alpha virt. eigenvalues --    2.07552   2.07778   2.08216   2.08608   2.09152
 Alpha virt. eigenvalues --    2.09617   2.09984   2.10257   2.10713   2.11044
 Alpha virt. eigenvalues --    2.11405   2.11503   2.11631   2.12560   2.12581
 Alpha virt. eigenvalues --    2.13071   2.14851   2.16077   2.16198   2.17053
 Alpha virt. eigenvalues --    2.17639   2.17739   2.19805   2.20082   2.21139
 Alpha virt. eigenvalues --    2.22113   2.22603   2.22951   2.24539   2.24821
 Alpha virt. eigenvalues --    2.25941   2.26553   2.26654   2.27598   2.27743
 Alpha virt. eigenvalues --    2.28676   2.29913   2.30078   2.30438   2.30876
 Alpha virt. eigenvalues --    2.31358   2.31853   2.32625   2.32839   2.32915
 Alpha virt. eigenvalues --    2.33131   2.34226   2.35049   2.35942   2.36124
 Alpha virt. eigenvalues --    2.37101   2.37621   2.38123   2.38796   2.38898
 Alpha virt. eigenvalues --    2.39313   2.39503   2.40073   2.40120   2.41853
 Alpha virt. eigenvalues --    2.42563   2.43253   2.43401   2.43473   2.43896
 Alpha virt. eigenvalues --    2.45096   2.45438   2.45840   2.47702   2.47999
 Alpha virt. eigenvalues --    2.48126   2.48521   2.48715   2.49520   2.50192
 Alpha virt. eigenvalues --    2.50637   2.50823   2.51465   2.51644   2.51906
 Alpha virt. eigenvalues --    2.52224   2.52850   2.53194   2.54456   2.54680
 Alpha virt. eigenvalues --    2.55473   2.56080   2.56863   2.57161   2.57234
 Alpha virt. eigenvalues --    2.57824   2.58331   2.58577   2.59026   2.59629
 Alpha virt. eigenvalues --    2.59891   2.59959   2.60363   2.60631   2.61366
 Alpha virt. eigenvalues --    2.61518   2.61664   2.62022   2.62257   2.62686
 Alpha virt. eigenvalues --    2.63475   2.63953   2.65012   2.65151   2.65574
 Alpha virt. eigenvalues --    2.65706   2.66203   2.66472   2.66756   2.67405
 Alpha virt. eigenvalues --    2.67822   2.67953   2.68135   2.68428   2.68689
 Alpha virt. eigenvalues --    2.69275   2.69672   2.70341   2.70645   2.71306
 Alpha virt. eigenvalues --    2.71497   2.72049   2.72732   2.73942   2.74464
 Alpha virt. eigenvalues --    2.75114   2.75491   2.76087   2.77650   2.78230
 Alpha virt. eigenvalues --    2.79014   2.79423   2.80018   2.80906   2.81444
 Alpha virt. eigenvalues --    2.81977   2.82581   2.83368   2.83512   2.83933
 Alpha virt. eigenvalues --    2.84119   2.84834   2.85082   2.85165   2.85871
 Alpha virt. eigenvalues --    2.85933   2.86030   2.86299   2.87354   2.88548
 Alpha virt. eigenvalues --    2.89043   2.89091   2.89606   2.90643   2.91081
 Alpha virt. eigenvalues --    2.91761   2.92029   2.92290   2.92490   2.92946
 Alpha virt. eigenvalues --    2.93686   2.93835   2.94753   2.95224   2.95764
 Alpha virt. eigenvalues --    2.96029   2.97142   2.98909   2.99407   3.00013
 Alpha virt. eigenvalues --    3.00079   3.00210   3.00525   3.01337   3.01609
 Alpha virt. eigenvalues --    3.02445   3.03056   3.03191   3.03217   3.03518
 Alpha virt. eigenvalues --    3.05233   3.05965   3.06451   3.07072   3.07351
 Alpha virt. eigenvalues --    3.07803   3.08813   3.09710   3.10161   3.11368
 Alpha virt. eigenvalues --    3.12519   3.14321   3.14930   3.15555   3.16365
 Alpha virt. eigenvalues --    3.17119   3.17687   3.17977   3.18655   3.18879
 Alpha virt. eigenvalues --    3.19471   3.20412   3.20719   3.22599   3.23027
 Alpha virt. eigenvalues --    3.23144   3.24758   3.25703   3.26414   3.26954
 Alpha virt. eigenvalues --    3.29332   3.30469   3.31547   3.33065   3.33630
 Alpha virt. eigenvalues --    3.33951   3.35408   3.35472   3.35741   3.36273
 Alpha virt. eigenvalues --    3.37036   3.37267   3.37775   3.40162   3.40963
 Alpha virt. eigenvalues --    3.41961   3.42482   3.45210   3.45866   3.46765
 Alpha virt. eigenvalues --    3.47709   3.48757   3.48826   3.49769   3.50822
 Alpha virt. eigenvalues --    3.52843   3.53707   3.54692   3.55510   3.56857
 Alpha virt. eigenvalues --    3.57593   3.59102   3.60372   3.60686   3.61005
 Alpha virt. eigenvalues --    3.61946   3.68164   3.68886   3.73946   3.74130
 Alpha virt. eigenvalues --    3.74444   3.74644   3.75209   3.76736   3.76989
 Alpha virt. eigenvalues --    3.77632   3.77728   3.78057   3.78627   3.81088
 Alpha virt. eigenvalues --    3.81238   3.84741   3.85826   3.86336   3.89357
 Alpha virt. eigenvalues --    3.90452   3.93702   3.94891   3.95594   3.95898
 Alpha virt. eigenvalues --    3.96492   3.98041   4.02094   4.02913   4.03982
 Alpha virt. eigenvalues --    4.04986   4.05244   4.09463   4.09835   4.10231
 Alpha virt. eigenvalues --    4.11190   4.11984   4.12698   4.15157   4.16068
 Alpha virt. eigenvalues --    4.16280   4.17499   4.18761   4.23332   4.25914
 Alpha virt. eigenvalues --    4.29261   4.32958   4.48676   4.53106   4.54392
 Alpha virt. eigenvalues --    4.57063   4.67358   4.82900   4.83510   4.83640
 Alpha virt. eigenvalues --    4.83730   4.83979   4.88364   4.88537   4.91373
 Alpha virt. eigenvalues --    4.92120   5.00572   5.03571   5.05128   5.12626
 Alpha virt. eigenvalues --    5.22102   5.26830   5.26871   5.27001   5.53852
 Alpha virt. eigenvalues --    5.61638   5.75753   5.76195   5.76876   5.77766
 Alpha virt. eigenvalues --    7.76565   7.78009   7.80506   7.82608  17.17024
 Alpha virt. eigenvalues --   17.18328  17.20130  17.20819  17.40439  17.43860
 Alpha virt. eigenvalues --   17.44720  17.48216  17.49943  17.50105  17.53820
 Alpha virt. eigenvalues --   17.55188  23.34077  23.43245  23.47285  23.51677
 Alpha virt. eigenvalues --   23.54962  23.59390  23.65006  23.70701  23.73926
 Alpha virt. eigenvalues --   23.78581  23.79217  23.80452  23.81987  23.84879
 Alpha virt. eigenvalues --   23.85057  23.86038  23.86951  23.88729  23.89400
 Alpha virt. eigenvalues --   23.90630  23.91147  23.91204  23.92459  23.92599
 Alpha virt. eigenvalues --   23.97645  23.99233  24.00825  24.01056  24.02456
 Alpha virt. eigenvalues --   24.03022  24.03645  24.03849  24.10120  24.10642
 Alpha virt. eigenvalues --   24.10735  24.11105  24.11540  24.12087  24.13589
 Alpha virt. eigenvalues --   24.16937  24.17083  24.17361  24.44452  35.63868
 Alpha virt. eigenvalues --   35.83757  49.84062  49.86335  49.90687  49.90833
 Alpha virt. eigenvalues --   49.99773  50.01365 188.88438 188.89796 188.91932
 Alpha virt. eigenvalues --  188.93873
          Condensed to atoms (all electrons):
 Mulliken charges:
               1
     1  C   -0.282289
     2  C    0.027418
     3  C   -0.183070
     4  C   -0.189312
     5  S    0.302933
     6  C   -0.270987
     7  C    0.004321
     8  C   -0.090614
     9  C   -0.115687
    10  C    0.193864
    11  N   -0.496231
    12  C    0.059898
    13  C   -0.064433
    14  H    0.103889
    15  C   -0.130713
    16  C    0.173411
    17  C   -0.085396
    18  C   -0.058117
    19  H    0.107416
    20  H    0.107105
    21  O   -0.347280
    22  C   -0.133025
    23  H    0.111573
    24  H    0.111385
    25  H    0.131835
    26  H    0.107275
    27  C    0.058970
    28  C   -0.059914
    29  C   -0.130233
    30  C    0.173333
    31  C   -0.087261
    32  C   -0.062501
    33  H    0.105313
    34  H    0.106029
    35  O   -0.347569
    36  C   -0.132585
    37  H    0.111274
    38  H    0.110523
    39  H    0.131759
    40  H    0.107267
    41  H    0.105583
    42  C   -0.111036
    43  C   -0.052020
    44  H    0.090803
    45  H    0.116574
    46  H    0.118527
    47  H    0.103693
    48  C    0.007301
    49  C    0.035158
    50  H    0.092796
    51  S    0.345139
    52  C   -0.233513
    53  C   -0.008881
    54  H    0.103690
    55  C   -0.187185
    56  S    0.332255
    57  C   -0.324345
    58  C   -0.073246
    59  C    0.016771
    60  C    0.046855
    61  C   -0.367315
    62  S    0.385076
    63  C    0.453254
    64  O   -0.343852
    65  O   -0.332514
    66  C   -0.110986
    67  H    0.124172
    68  H    0.126510
    69  H    0.129708
    70  H    0.131050
    71  C    0.009295
    72  C   -0.178046
    73  C    0.054595
    74  N   -0.220429
    75  C    0.423526
    76  O   -0.304425
    77  H    0.241722
    78  O   -0.291682
    79  H    0.102829
    80  C   -0.211507
    81  H    0.122690
    82  H    0.109015
    83  H    0.110295
    84  C   -0.210105
    85  H    0.123755
    86  H    0.109616
    87  H    0.109265
 Sum of Mulliken charges =  -0.00000
 Mulliken charges with hydrogens summed into heavy atoms:
               1
     1  C   -0.282289
     2  C    0.027418
     3  C   -0.183070
     4  C   -0.189312
     5  S    0.302933
     6  C   -0.270987
     7  C    0.004321
     8  C    0.013079
     9  C    0.002840
    10  C    0.193864
    11  N   -0.496231
    12  C    0.059898
    13  C    0.039457
    15  C   -0.023438
    16  C    0.173411
    17  C    0.021709
    18  C    0.049299
    21  O   -0.347280
    22  C    0.221768
    27  C    0.058970
    28  C    0.045668
    29  C   -0.022966
    30  C    0.173333
    31  C    0.018768
    32  C    0.042812
    35  O   -0.347569
    36  C    0.220971
    42  C    0.005539
    43  C    0.038782
    48  C    0.100097
    49  C    0.035158
    51  S    0.345139
    52  C   -0.233513
    53  C    0.094808
    55  C   -0.187185
    56  S    0.332255
    57  C   -0.324345
    58  C   -0.073246
    59  C    0.016771
    60  C    0.177906
    61  C   -0.367315
    62  S    0.385076
    63  C    0.453254
    64  O   -0.343852
    65  O   -0.332514
    66  C    0.269403
    71  C    0.112125
    72  C   -0.178046
    73  C    0.054595
    74  N   -0.220429
    75  C    0.423526
    76  O   -0.062702
    78  O   -0.291682
    80  C    0.130493
    84  C    0.132531
 Electronic spatial extent (au):  <R**2>=         100528.1891
 Charge=              0.0000 electrons
 Dipole moment (field-independent basis, Debye):
    X=            -16.8097    Y=             -3.0050    Z=             -5.9093  Tot=             18.0697
 Quadrupole moment (field-independent basis, Debye-Ang):
   XX=           -448.6210   YY=           -302.0695   ZZ=           -349.0254
   XY=              1.6262   XZ=            -26.5070   YZ=              2.8406
 Traceless Quadrupole moment (field-independent basis, Debye-Ang):
   XX=            -82.0490   YY=             64.5025   ZZ=             17.5465
   XY=              1.6262   XZ=            -26.5070   YZ=              2.8406
 Octapole moment (field-independent basis, Debye-Ang**2):
  XXX=          -3160.5680  YYY=            104.1846  ZZZ=            -26.8625  XYY=           -163.1768
  XXY=            270.4144  XXZ=           -801.5263  XZZ=            -78.5767  YZZ=             -1.0840
  YYZ=            -98.2652  XYZ=            -55.8932
 Hexadecapole moment (field-independent basis, Debye-Ang**3):
 XXXX=        -145546.6213 YYYY=         -13184.5791 ZZZZ=          -1750.8738 XXXY=           1984.7569
 XXXZ=          -4304.3532 YYYX=            794.1510 YYYZ=            -91.1851 ZZZX=           -146.7150
 ZZZY=            -13.3447 XXYY=         -18652.7995 XXZZ=         -20410.4468 YYZZ=          -2699.0223
 XXYZ=            333.4989 YYXZ=            168.1331 ZZXY=            243.2090
 N-N= 7.134635101634D+03 E-N=-2.322488903801D+04  KE= 3.801261455259D+03
 1\1\GINC-CN113\FOpt\RB3LYP\6-311G(d,p)\C43H32N2O6S4\R2532\10-Jun-2021\
 0\\#N B3LYP/6-311G(d,p) OPT\\C41H28O4N2S4\\0,1\C,0.1133026561,0.232870
 9232,-0.404395905\C,1.3072322633,1.1773723607,-0.273883216\C,0.8753232
 195,2.4900211738,-0.1042016133\C,-0.5544645468,2.5208811634,-0.1052407
 884\S,-1.829983511,3.6791156372,0.0430275871\C,-3.043643199,2.40682696
 95,-0.1482723143\C,-4.4653774255,2.7276706174,-0.1209774346\C,-4.95390
 12139,3.9973607227,-0.4753782194\C,-6.3074206355,4.2886608074,-0.45601
 34072\C,-7.2503317211,3.3163005766,-0.0745846781\N,-8.6221543786,3.606
 835228,-0.0471464169\C,-9.0834275491,4.9394413328,0.1801983106\C,-10.0
 24973377,5.5202716385,-0.6685799675\H,-10.3952667046,4.9572765147,-1.5
 169791379\C,-10.5054991465,6.8089745088,-0.4369236631\C,-10.0276065376
 ,7.5454079934,0.6496231418\C,-9.0768418412,6.9690381561,1.5026455362\C
 ,-8.6202542724,5.6817249077,1.2771694649\H,-7.8958278143,5.2411215565,
 1.9517384799\H,-8.7238509952,7.5482257239,2.3471933732\O,-10.418805008
 3,8.8117867645,0.9659814965\C,-11.3803687782,9.4503941552,0.1377959256
 \H,-11.0146792383,9.5638593344,-0.8889316002\H,-12.3292123307,8.902258
 7884,0.1271855875\H,-11.5397025573,10.4354829147,0.5728988268\H,-11.23
 9556761,7.2248440901,-1.1136895315\C,-9.5932184793,2.582727002,-0.2651
 106915\C,-9.509718675,1.7353186146,-1.3701601515\C,-10.458413808,0.735
 6853352,-1.5843970356\C,-11.5271500223,0.5882948309,-0.6964841287\C,-1
 1.6240841099,1.4462169756,0.4067870367\C,-10.6666743645,2.422772207,0.
 623198211\H,-10.7466646692,3.0760512105,1.4837777578\H,-12.4564370791,
 1.3175969962,1.0879401465\O,-12.5143995518,-0.3442716432,-0.8128452382
 \C,-12.4740473841,-1.2393495073,-1.9150551994\H,-12.5389334128,-0.7051
 815021,-2.8696866422\H,-11.5654108449,-1.8519175243,-1.9026998708\H,-1
 3.3435948851,-1.8851229532,-1.8054680852\H,-10.359431501,0.0950729301,
 -2.4502752383\H,-8.6912771,1.8522519315,-2.0705891662\C,-6.7690562068,
 2.0426884477,0.2853678034\C,-5.4144893575,1.7615722419,0.2617512697\H,
 -5.0802152671,0.7823331381,0.5845138941\H,-7.4676751328,1.2799304504,0
 .6040947858\H,-6.6459215536,5.2727698827,-0.7528088077\H,-4.2631424728
 ,4.7649369795,-0.8069250186\C,-2.4413082652,1.1684544055,-0.2992414177
 \C,-1.0349925459,1.2320082307,-0.2738698839\H,-3.0155723048,0.26506313
 5,-0.4556196532\S,2.1836200574,3.6011353355,0.0415833465\C,3.356639054
 1,2.282579324,-0.1450187193\C,2.6997175857,1.061742729,-0.2976231443\H
 ,3.2400505425,0.134373145,-0.4403668275\C,4.7635927738,2.5189051856,-0
 .0975026255\S,5.8621689291,1.2032134682,0.2194398999\C,7.3094072341,2.
 2202283188,0.1212437514\C,6.9066068621,3.5340690843,-0.1219127518\C,5.
 4931303082,3.7073930619,-0.2611701637\C,5.1437167539,5.0393359079,-0.6
 395715604\C,6.2364965606,5.8353017373,-0.7901488503\S,7.7667853484,5.0
 155950685,-0.4565163716\C,6.1808339484,7.2576601197,-1.1770696877\O,5.
 1590833773,7.8626495089,-1.3997044307\O,7.4142813016,7.794045172,-1.25
 25087376\C,7.4757294192,9.1866458599,-1.6107760199\H,7.0395053979,9.34
 37178487,-2.5982698553\H,6.9359384479,9.7898779837,-0.8796473933\H,8.5
 332788601,9.4383544651,-1.6116109714\H,4.1449127378,5.4112176011,-0.81
 37961555\C,8.5611367741,1.5600442993,0.2236670077\C,9.8095980816,2.036
 982989,0.5411575723\C,10.027822938,3.3287117593,1.0891914971\N,10.1980
 814938,4.3686691032,1.5663073533\C,11.0133408245,1.1475362662,0.526230
 4527\O,10.9371128212,0.0514273855,-0.2855690512\H,10.2413049061,0.1730
 134596,-0.9414403674\O,11.9929287427,1.3443110578,1.1881556783\H,8.507
 002162,0.4863091566,0.0565047279\C,0.0964743576,-0.4700918153,-1.77856
 92215\H,0.1165822181,0.2581693267,-2.5916681951\H,0.9629952544,-1.1286
 108523,-1.8840052621\H,-0.8050586037,-1.0793831466,-1.8852333851\C,0.0
 874082198,-0.8068118439,0.7364491949\H,0.1020185051,-0.3180594174,1.71
 25409746\H,-0.8148260371,-1.4211110533,0.6730793613\H,0.9534032395,-1.
 4711159741,0.670800417\\Version=ES64L-G16RevB.01\State=1-A\HF=-3812.03
 13466\RMSD=7.089e-09\RMSF=3.291e-06\Dipole=-6.6067858,-1.0764368,-2.39
 41722\Quadrupole=-60.6645737,47.8309248,12.8336489,2.6021464,-20.20308
 3,2.9306062\PG=C01 [X(C43H32N2O6S4)]\\@


 SCIENCE IS A VERY HUMAN FORM OF KNOWLEDGE.
 WE ARE ALWAYS AT THE BRINK OF THE KNOWN,
 WE ALWAYS FEEL FORWARD FOR WHAT IS HOPED.
 EVERY JUDGEMENT IN SCIENCE STANDS ON THE EDGE OF ERROR, AND IS PERSONAL.
 SCIENCE IS A TRIBUTE TO WHAT WE CAN KNOW ALTHOUGH WE ARE FALLIBLE.

                     -- J. BRONOWSKI
 Job cpu time:       0 days 23 hours 43 minutes 32.0 seconds.
 Elapsed time:       0 days 23 hours 43 minutes 39.9 seconds.
 File lengths (MBytes):  RWF=    902 Int=      0 D2E=      0 Chk=    108 Scr=      1
 Normal termination of Gaussian 16 at Thu Jun 10 14:30:27 2021.
