 Entering Gaussian System, Link 0=g16
 Input=mex.com
 Output=mex.out
 Initial command:
 /usr/local/apps/gaussian/g16-b01-avx2//g16/l1.exe "/tmp/r2532.887752.maple/Gau-28937.inp" -scrdir="/tmp/r2532.887752.maple/"
 Entering Link 1 = /usr/local/apps/gaussian/g16-b01-avx2//g16/l1.exe PID=     28940.
  
 Copyright (c) 1988-2017, Gaussian, Inc.  All Rights Reserved.
  
 This is part of the Gaussian(R) 16 program.  It is based on
 the Gaussian(R) 09 system (copyright 2009, Gaussian, Inc.),
 the Gaussian(R) 03 system (copyright 2003, Gaussian, Inc.),
 the Gaussian(R) 98 system (copyright 1998, Gaussian, Inc.),
 the Gaussian(R) 94 system (copyright 1995, Gaussian, Inc.),
 the Gaussian 92(TM) system (copyright 1992, Gaussian, Inc.),
 the Gaussian 90(TM) system (copyright 1990, Gaussian, Inc.),
 the Gaussian 88(TM) system (copyright 1988, Gaussian, Inc.),
 the Gaussian 86(TM) system (copyright 1986, Carnegie Mellon
 University), and the Gaussian 82(TM) system (copyright 1983,
 Carnegie Mellon University). Gaussian is a federally registered
 trademark of Gaussian, Inc.
  
 This software contains proprietary and confidential information,
 including trade secrets, belonging to Gaussian, Inc.
  
 This software is provided under written license and may be
 used, copied, transmitted, or stored only in accord with that
 written license.
  
 The following legend is applicable only to US Government
 contracts under FAR:
  
                    RESTRICTED RIGHTS LEGEND
  
 Use, reproduction and disclosure by the US Government is
 subject to restrictions as set forth in subparagraphs (a)
 and (c) of the Commercial Computer Software - Restricted
 Rights clause in FAR 52.227-19.
  
 Gaussian, Inc.
 340 Quinnipiac St., Bldg. 40, Wallingford CT 06492
  
  
 ---------------------------------------------------------------
 Warning -- This program may not be used in any manner that
 competes with the business of Gaussian, Inc. or will provide
 assistance to any competitor of Gaussian, Inc.  The licensee
 of this program is prohibited from giving any competitor of
 Gaussian, Inc. access to this program.  By using this program,
 the user acknowledges that Gaussian, Inc. is engaged in the
 business of creating and licensing software in the field of
 computational chemistry and represents and warrants to the
 licensee that it is not a competitor of Gaussian, Inc. and that
 it will not use this program in any manner prohibited above.
 ---------------------------------------------------------------
  

 Cite this work as:
 Gaussian 16, Revision B.01,
 M. J. Frisch, G. W. Trucks, H. B. Schlegel, G. E. Scuseria, 
 M. A. Robb, J. R. Cheeseman, G. Scalmani, V. Barone, 
 G. A. Petersson, H. Nakatsuji, X. Li, M. Caricato, A. V. Marenich, 
 J. Bloino, B. G. Janesko, R. Gomperts, B. Mennucci, H. P. Hratchian, 
 J. V. Ortiz, A. F. Izmaylov, J. L. Sonnenberg, D. Williams-Young, 
 F. Ding, F. Lipparini, F. Egidi, J. Goings, B. Peng, A. Petrone, 
 T. Henderson, D. Ranasinghe, V. G. Zakrzewski, J. Gao, N. Rega, 
 G. Zheng, W. Liang, M. Hada, M. Ehara, K. Toyota, R. Fukuda, 
 J. Hasegawa, M. Ishida, T. Nakajima, Y. Honda, O. Kitao, H. Nakai, 
 T. Vreven, K. Throssell, J. A. Montgomery, Jr., J. E. Peralta, 
 F. Ogliaro, M. J. Bearpark, J. J. Heyd, E. N. Brothers, K. N. Kudin, 
 V. N. Staroverov, T. A. Keith, R. Kobayashi, J. Normand, 
 K. Raghavachari, A. P. Rendell, J. C. Burant, S. S. Iyengar, 
 J. Tomasi, M. Cossi, J. M. Millam, M. Klene, C. Adamo, R. Cammi, 
 J. W. Ochterski, R. L. Martin, K. Morokuma, O. Farkas, 
 J. B. Foresman, and D. J. Fox, Gaussian, Inc., Wallingford CT, 2016.
 
 ******************************************
 Gaussian 16:  ES64L-G16RevB.01 20-Dec-2017
                 9-Jul-2021 
 ******************************************
 %mem=8gb
 --------------------------
 #N PBE1PBE/6-311G(d,p) OPT
 --------------------------
 1/18=20,19=15,26=3,38=1/1,3;
 2/9=110,12=2,17=6,18=5,40=1/2;
 3/5=4,6=6,7=101,11=2,25=1,30=1,71=1,74=-13/1,2,3;
 4//1;
 5/5=2,38=5/2;
 6/7=2,8=2,9=2,10=2,28=1/1;
 7//1,2,3,16;
 1/18=20,19=15,26=3/3(2);
 2/9=110/2;
 99//99;
 2/9=110/2;
 3/5=4,6=6,7=101,11=2,25=1,30=1,71=1,74=-13/1,2,3;
 4/5=5,16=3,69=1/1;
 5/5=2,38=5/2;
 7//1,2,3,16;
 1/18=20,19=15,26=3/3(-5);
 2/9=110/2;
 6/7=2,8=2,9=2,10=2,19=2,28=1/1;
 99/9=1/99;
 ------------
 C61H46O6N4S3
 ------------
 Symbolic Z-matrix:
 Charge =  0 Multiplicity = 1
 6                    -8.18249   7.12857  -1.10595 
 8                    -7.42423   6.34312  -0.19744 
 6                    -7.5943    4.99053  -0.21021 
 6                    -8.46962   4.30292  -1.0542 
 6                    -8.55607   2.91276  -0.98279 
 6                    -7.79456   2.18938  -0.06524 
 7                    -7.91427   0.76933   0.02046 
 6                    -6.77422  -0.05077   0.00591 
 6                    -6.76859  -1.29719   0.65948 
 6                    -5.6441   -2.1045    0.64103 
 6                    -4.46769  -1.71623  -0.02414 
 6                    -4.47861  -0.4671   -0.66724 
 6                    -5.59988   0.34647  -0.65834 
 1                    -5.57691   1.29358  -1.18167 
 1                    -3.60271  -0.13803  -1.21567 
 6                    -3.29801  -2.59042  -0.04035 
 16                   -1.67925  -1.94831  -0.23798 
 6                    -0.95647  -3.54292  -0.13865 
 6                    -1.93757  -4.49439   0.04475 
 6                    -3.24434  -3.96144   0.09347 
 1                    -4.13075  -4.57135   0.20492 
 1                    -1.7165   -5.548     0.15327 
 6                     0.46609  -3.75546  -0.25352 
 16                    1.62597  -2.48934   0.09096 
 6                     2.98241  -3.54288  -0.26359 
 6                     2.52668  -4.8025   -0.6028 
 6                     1.12366  -4.92082  -0.59969 
 1                     0.5986   -5.82419  -0.87889 
 1                     3.19202  -5.60749  -0.88481 
 6                     4.3482   -3.09528  -0.18096 
 6                     5.48985  -3.87575  -0.10766 
 6                     6.68132  -3.1349   -0.04921 
 6                     6.49506  -1.76173  -0.0655 
 16                    4.77339  -1.40069  -0.18014 
 6                     7.47084  -0.70005  -0.00417 
 6                     7.11059   0.64547   0.0181 
 6                     8.02713   1.70904   0.07505 
 6                     9.40489   1.52292   0.11638 
 6                     9.83934   0.14915   0.09659 
 6                     8.89384  -0.95133   0.03749 
 7                     9.48662  -2.14553   0.02673 
 16                    11.10304  -1.88727   0.08721 
 7                     11.10984  -0.25003   0.12872 
 6                     10.41614   2.5474    0.17702 
 6                     10.31804   3.90763   0.20624 
 6                     9.08674   4.62455   0.17921 
 7                     8.07401   5.18156   0.15628 
 6                     11.52734   4.77024   0.2703 
 8                     12.68259   4.06085   0.29514 
 1                     13.39522   4.71429   0.33615 
 8                     11.50277   5.97554   0.29799 
 1                     11.42922   2.16391   0.20395 
 1                     7.62185   2.7108    0.08811 
 1                     6.0591    0.90584  -0.00696 
 1                     7.6642   -3.57476   0.01645 
 1                     5.45769  -4.95616  -0.07315 
 1                    -5.66562  -3.04124   1.18587 
 1                    -7.64961  -1.62062   1.19872 
 6                    -9.22024   0.20113   0.11517 
 6                    -10.13961   0.68271   1.04701 
 6                    -11.42803   0.15491   1.12779 
 6                    -11.80829  -0.88771   0.2795 
 6                    -10.88714  -1.38091  -0.65371 
 6                    -9.61665  -0.83716  -0.74146 
 1                    -8.91767  -1.21786  -1.47661 
 1                    -11.19929  -2.18243  -1.31221 
 8                    -13.03519  -1.48295   0.27622 
 6                    -14.01309  -1.02042   1.19658 
 1                    -13.68725  -1.1581    2.2338 
 1                    -14.25482   0.03541   1.02963 
 1                    -14.90055  -1.62474   1.01626 
 1                    -12.11458   0.55781   1.86016 
 1                    -9.85      1.48633   1.71356 
 6                    -6.92769   2.8905    0.78659 
 6                    -6.82057   4.26876   0.70812 
 1                    -6.15277   4.81606   1.36226 
 1                    -6.33444   2.34484   1.51064 
 1                    -9.23205   2.38559  -1.64544 
 1                    -9.07899   4.83012  -1.77583 
 1                    -7.89437   8.1615   -0.91818 
 1                    -7.95366   6.87344  -2.14684 
 1                    -9.25887   7.01634  -0.93299 
 

 GradGradGradGradGradGradGradGradGradGradGradGradGradGradGradGradGradGrad
 Berny optimization.
 Initialization pass.
                           ----------------------------
                           !    Initial Parameters    !
                           ! (Angstroms and Degrees)  !
 --------------------------                            --------------------------
 ! Name  Definition              Value          Derivative Info.                !
 --------------------------------------------------------------------------------
 ! R1    R(1,2)                  1.4203         estimate D2E/DX2                !
 ! R2    R(1,80)                 1.0887         estimate D2E/DX2                !
 ! R3    R(1,81)                 1.0959         estimate D2E/DX2                !
 ! R4    R(1,82)                 1.096          estimate D2E/DX2                !
 ! R5    R(2,3)                  1.3633         estimate D2E/DX2                !
 ! R6    R(3,4)                  1.3969         estimate D2E/DX2                !
 ! R7    R(3,75)                 1.401          estimate D2E/DX2                !
 ! R8    R(4,5)                  1.3947         estimate D2E/DX2                !
 ! R9    R(4,79)                 1.0817         estimate D2E/DX2                !
 ! R10   R(5,6)                  1.3947         estimate D2E/DX2                !
 ! R11   R(5,78)                 1.0835         estimate D2E/DX2                !
 ! R12   R(6,7)                  1.4277         estimate D2E/DX2                !
 ! R13   R(6,74)                 1.4031         estimate D2E/DX2                !
 ! R14   R(7,8)                  1.4045         estimate D2E/DX2                !
 ! R15   R(7,59)                 1.4274         estimate D2E/DX2                !
 ! R16   R(8,9)                  1.4074         estimate D2E/DX2                !
 ! R17   R(8,13)                 1.4065         estimate D2E/DX2                !
 ! R18   R(9,10)                 1.3844         estimate D2E/DX2                !
 ! R19   R(9,58)                 1.0824         estimate D2E/DX2                !
 ! R20   R(10,11)                1.4061         estimate D2E/DX2                !
 ! R21   R(10,57)                1.0839         estimate D2E/DX2                !
 ! R22   R(11,12)                1.405          estimate D2E/DX2                !
 ! R23   R(11,16)                1.4604         estimate D2E/DX2                !
 ! R24   R(12,13)                1.3854         estimate D2E/DX2                !
 ! R25   R(12,15)                1.0846         estimate D2E/DX2                !
 ! R26   R(13,14)                1.0823         estimate D2E/DX2                !
 ! R27   R(16,17)                1.7526         estimate D2E/DX2                !
 ! R28   R(16,20)                1.3786         estimate D2E/DX2                !
 ! R29   R(17,18)                1.7536         estimate D2E/DX2                !
 ! R30   R(18,19)                1.3789         estimate D2E/DX2                !
 ! R31   R(18,23)                1.4429         estimate D2E/DX2                !
 ! R32   R(19,20)                1.4121         estimate D2E/DX2                !
 ! R33   R(19,22)                1.082          estimate D2E/DX2                !
 ! R34   R(20,21)                1.0817         estimate D2E/DX2                !
 ! R35   R(23,24)                1.7513         estimate D2E/DX2                !
 ! R36   R(23,27)                1.3821         estimate D2E/DX2                !
 ! R37   R(24,25)                1.7537         estimate D2E/DX2                !
 ! R38   R(25,26)                1.3818         estimate D2E/DX2                !
 ! R39   R(25,30)                1.4396         estimate D2E/DX2                !
 ! R40   R(26,27)                1.408          estimate D2E/DX2                !
 ! R41   R(26,29)                1.0818         estimate D2E/DX2                !
 ! R42   R(27,28)                1.0815         estimate D2E/DX2                !
 ! R43   R(30,31)                1.3849         estimate D2E/DX2                !
 ! R44   R(30,34)                1.7471         estimate D2E/DX2                !
 ! R45   R(31,32)                1.4042         estimate D2E/DX2                !
 ! R46   R(31,56)                1.0814         estimate D2E/DX2                !
 ! R47   R(32,33)                1.3858         estimate D2E/DX2                !
 ! R48   R(32,55)                1.0788         estimate D2E/DX2                !
 ! R49   R(33,34)                1.7628         estimate D2E/DX2                !
 ! R50   R(33,35)                1.4433         estimate D2E/DX2                !
 ! R51   R(35,36)                1.3931         estimate D2E/DX2                !
 ! R52   R(35,40)                1.4456         estimate D2E/DX2                !
 ! R53   R(36,37)                1.4052         estimate D2E/DX2                !
 ! R54   R(36,54)                1.0835         estimate D2E/DX2                !
 ! R55   R(37,38)                1.3909         estimate D2E/DX2                !
 ! R56   R(37,53)                1.0807         estimate D2E/DX2                !
 ! R57   R(38,39)                1.441          estimate D2E/DX2                !
 ! R58   R(38,44)                1.4408         estimate D2E/DX2                !
 ! R59   R(39,40)                1.4521         estimate D2E/DX2                !
 ! R60   R(39,43)                1.3321         estimate D2E/DX2                !
 ! R61   R(40,41)                1.3333         estimate D2E/DX2                !
 ! R62   R(41,42)                1.638          estimate D2E/DX2                !
 ! R63   R(42,43)                1.6378         estimate D2E/DX2                !
 ! R64   R(44,45)                1.3641         estimate D2E/DX2                !
 ! R65   R(44,52)                1.0836         estimate D2E/DX2                !
 ! R66   R(45,46)                1.4251         estimate D2E/DX2                !
 ! R67   R(45,48)                1.4868         estimate D2E/DX2                !
 ! R68   R(46,47)                1.156          estimate D2E/DX2                !
 ! R69   R(48,49)                1.3559         estimate D2E/DX2                !
 ! R70   R(48,51)                1.2059         estimate D2E/DX2                !
 ! R71   R(49,50)                0.9677         estimate D2E/DX2                !
 ! R72   R(59,60)                1.3948         estimate D2E/DX2                !
 ! R73   R(59,64)                1.4032         estimate D2E/DX2                !
 ! R74   R(60,61)                1.3947         estimate D2E/DX2                !
 ! R75   R(60,73)                1.0835         estimate D2E/DX2                !
 ! R76   R(61,62)                1.3969         estimate D2E/DX2                !
 ! R77   R(61,72)                1.0817         estimate D2E/DX2                !
 ! R78   R(62,63)                1.4009         estimate D2E/DX2                !
 ! R79   R(62,67)                1.3637         estimate D2E/DX2                !
 ! R80   R(63,64)                1.3847         estimate D2E/DX2                !
 ! R81   R(63,66)                1.0833         estimate D2E/DX2                !
 ! R82   R(64,65)                1.0835         estimate D2E/DX2                !
 ! R83   R(67,68)                1.4203         estimate D2E/DX2                !
 ! R84   R(68,69)                1.0959         estimate D2E/DX2                !
 ! R85   R(68,70)                1.0959         estimate D2E/DX2                !
 ! R86   R(68,71)                1.0887         estimate D2E/DX2                !
 ! R87   R(74,75)                1.3846         estimate D2E/DX2                !
 ! R88   R(74,77)                1.0835         estimate D2E/DX2                !
 ! R89   R(75,76)                1.0832         estimate D2E/DX2                !
 ! A1    A(2,1,80)             105.8475         estimate D2E/DX2                !
 ! A2    A(2,1,81)             111.5518         estimate D2E/DX2                !
 ! A3    A(2,1,82)             111.5157         estimate D2E/DX2                !
 ! A4    A(80,1,81)            109.236          estimate D2E/DX2                !
 ! A5    A(80,1,82)            109.2604         estimate D2E/DX2                !
 ! A6    A(81,1,82)            109.3385         estimate D2E/DX2                !
 ! A7    A(1,2,3)              118.4297         estimate D2E/DX2                !
 ! A8    A(2,3,4)              124.904          estimate D2E/DX2                !
 ! A9    A(2,3,75)             115.8549         estimate D2E/DX2                !
 ! A10   A(4,3,75)             119.2408         estimate D2E/DX2                !
 ! A11   A(3,4,5)              119.9043         estimate D2E/DX2                !
 ! A12   A(3,4,79)             121.0761         estimate D2E/DX2                !
 ! A13   A(5,4,79)             119.016          estimate D2E/DX2                !
 ! A14   A(4,5,6)              121.1207         estimate D2E/DX2                !
 ! A15   A(4,5,78)             119.4936         estimate D2E/DX2                !
 ! A16   A(6,5,78)             119.3838         estimate D2E/DX2                !
 ! A17   A(5,6,7)              120.6388         estimate D2E/DX2                !
 ! A18   A(5,6,74)             118.5276         estimate D2E/DX2                !
 ! A19   A(7,6,74)             120.8236         estimate D2E/DX2                !
 ! A20   A(6,7,8)              120.8058         estimate D2E/DX2                !
 ! A21   A(6,7,59)             118.4671         estimate D2E/DX2                !
 ! A22   A(8,7,59)             120.7265         estimate D2E/DX2                !
 ! A23   A(7,8,9)              121.036          estimate D2E/DX2                !
 ! A24   A(7,8,13)             121.1807         estimate D2E/DX2                !
 ! A25   A(9,8,13)             117.7831         estimate D2E/DX2                !
 ! A26   A(8,9,10)             120.8977         estimate D2E/DX2                !
 ! A27   A(8,9,58)             119.5205         estimate D2E/DX2                !
 ! A28   A(10,9,58)            119.5726         estimate D2E/DX2                !
 ! A29   A(9,10,11)            121.6581         estimate D2E/DX2                !
 ! A30   A(9,10,57)            118.7613         estimate D2E/DX2                !
 ! A31   A(11,10,57)           119.5409         estimate D2E/DX2                !
 ! A32   A(10,11,12)           117.0984         estimate D2E/DX2                !
 ! A33   A(10,11,16)           120.6686         estimate D2E/DX2                !
 ! A34   A(12,11,16)           122.2323         estimate D2E/DX2                !
 ! A35   A(11,12,13)           121.6997         estimate D2E/DX2                !
 ! A36   A(11,12,15)           119.6648         estimate D2E/DX2                !
 ! A37   A(13,12,15)           118.6023         estimate D2E/DX2                !
 ! A38   A(8,13,12)            120.8612         estimate D2E/DX2                !
 ! A39   A(8,13,14)            119.5539         estimate D2E/DX2                !
 ! A40   A(12,13,14)           119.5787         estimate D2E/DX2                !
 ! A41   A(11,16,17)           121.4472         estimate D2E/DX2                !
 ! A42   A(11,16,20)           128.7144         estimate D2E/DX2                !
 ! A43   A(17,16,20)           109.8371         estimate D2E/DX2                !
 ! A44   A(16,17,18)            92.358          estimate D2E/DX2                !
 ! A45   A(17,18,19)           109.9818         estimate D2E/DX2                !
 ! A46   A(17,18,23)           122.3974         estimate D2E/DX2                !
 ! A47   A(19,18,23)           127.6183         estimate D2E/DX2                !
 ! A48   A(18,19,20)           113.7401         estimate D2E/DX2                !
 ! A49   A(18,19,22)           122.6739         estimate D2E/DX2                !
 ! A50   A(20,19,22)           123.5814         estimate D2E/DX2                !
 ! A51   A(16,20,19)           114.0807         estimate D2E/DX2                !
 ! A52   A(16,20,21)           122.6044         estimate D2E/DX2                !
 ! A53   A(19,20,21)           123.3031         estimate D2E/DX2                !
 ! A54   A(18,23,24)           122.0594         estimate D2E/DX2                !
 ! A55   A(18,23,27)           127.8197         estimate D2E/DX2                !
 ! A56   A(24,23,27)           110.1051         estimate D2E/DX2                !
 ! A57   A(23,24,25)            92.188          estimate D2E/DX2                !
 ! A58   A(24,25,26)           110.0086         estimate D2E/DX2                !
 ! A59   A(24,25,30)           122.3711         estimate D2E/DX2                !
 ! A60   A(26,25,30)           127.6181         estimate D2E/DX2                !
 ! A61   A(25,26,27)           113.8723         estimate D2E/DX2                !
 ! A62   A(25,26,29)           122.6489         estimate D2E/DX2                !
 ! A63   A(27,26,29)           123.43           estimate D2E/DX2                !
 ! A64   A(23,27,26)           113.8144         estimate D2E/DX2                !
 ! A65   A(23,27,28)           122.544          estimate D2E/DX2                !
 ! A66   A(26,27,28)           123.5993         estimate D2E/DX2                !
 ! A67   A(25,30,31)           127.5822         estimate D2E/DX2                !
 ! A68   A(25,30,34)           122.1728         estimate D2E/DX2                !
 ! A69   A(31,30,34)           110.2415         estimate D2E/DX2                !
 ! A70   A(30,31,32)           113.8496         estimate D2E/DX2                !
 ! A71   A(30,31,56)           122.6982         estimate D2E/DX2                !
 ! A72   A(32,31,56)           123.4342         estimate D2E/DX2                !
 ! A73   A(31,32,33)           114.0935         estimate D2E/DX2                !
 ! A74   A(31,32,55)           124.0871         estimate D2E/DX2                !
 ! A75   A(33,32,55)           121.8144         estimate D2E/DX2                !
 ! A76   A(32,33,34)           109.5702         estimate D2E/DX2                !
 ! A77   A(32,33,35)           129.6057         estimate D2E/DX2                !
 ! A78   A(34,33,35)           120.8241         estimate D2E/DX2                !
 ! A79   A(30,34,33)            92.239          estimate D2E/DX2                !
 ! A80   A(33,35,36)           122.4336         estimate D2E/DX2                !
 ! A81   A(33,35,40)           122.6071         estimate D2E/DX2                !
 ! A82   A(36,35,40)           114.9593         estimate D2E/DX2                !
 ! A83   A(35,36,37)           124.2657         estimate D2E/DX2                !
 ! A84   A(35,36,54)           118.8603         estimate D2E/DX2                !
 ! A85   A(37,36,54)           116.8739         estimate D2E/DX2                !
 ! A86   A(36,37,38)           123.0949         estimate D2E/DX2                !
 ! A87   A(36,37,53)           117.225          estimate D2E/DX2                !
 ! A88   A(38,37,53)           119.68           estimate D2E/DX2                !
 ! A89   A(37,38,39)           115.2025         estimate D2E/DX2                !
 ! A90   A(37,38,44)           126.9662         estimate D2E/DX2                !
 ! A91   A(39,38,44)           117.8313         estimate D2E/DX2                !
 ! A92   A(38,39,40)           121.7873         estimate D2E/DX2                !
 ! A93   A(38,39,43)           124.9528         estimate D2E/DX2                !
 ! A94   A(40,39,43)           113.2599         estimate D2E/DX2                !
 ! A95   A(35,40,39)           120.6903         estimate D2E/DX2                !
 ! A96   A(35,40,41)           126.3777         estimate D2E/DX2                !
 ! A97   A(39,40,41)           112.932          estimate D2E/DX2                !
 ! A98   A(40,41,42)           107.2908         estimate D2E/DX2                !
 ! A99   A(41,42,43)            99.3603         estimate D2E/DX2                !
 ! A100  A(39,43,42)           107.1569         estimate D2E/DX2                !
 ! A101  A(38,44,45)           131.26           estimate D2E/DX2                !
 ! A102  A(38,44,52)           113.9288         estimate D2E/DX2                !
 ! A103  A(45,44,52)           114.8112         estimate D2E/DX2                !
 ! A104  A(44,45,46)           124.2913         estimate D2E/DX2                !
 ! A105  A(44,45,48)           121.3969         estimate D2E/DX2                !
 ! A106  A(46,45,48)           114.3119         estimate D2E/DX2                !
 ! A107  A(45,48,49)           112.9696         estimate D2E/DX2                !
 ! A108  A(45,48,51)           124.3548         estimate D2E/DX2                !
 ! A109  A(49,48,51)           122.6756         estimate D2E/DX2                !
 ! A110  A(48,49,50)           105.9573         estimate D2E/DX2                !
 ! A111  A(7,59,60)            120.6615         estimate D2E/DX2                !
 ! A112  A(7,59,64)            120.8317         estimate D2E/DX2                !
 ! A113  A(60,59,64)           118.4973         estimate D2E/DX2                !
 ! A114  A(59,60,61)           121.1281         estimate D2E/DX2                !
 ! A115  A(59,60,73)           119.399          estimate D2E/DX2                !
 ! A116  A(61,60,73)           119.4708         estimate D2E/DX2                !
 ! A117  A(60,61,62)           119.9185         estimate D2E/DX2                !
 ! A118  A(60,61,72)           118.9864         estimate D2E/DX2                !
 ! A119  A(62,61,72)           121.0916         estimate D2E/DX2                !
 ! A120  A(61,62,63)           119.2295         estimate D2E/DX2                !
 ! A121  A(61,62,67)           124.902          estimate D2E/DX2                !
 ! A122  A(63,62,67)           115.8681         estimate D2E/DX2                !
 ! A123  A(62,63,64)           120.4801         estimate D2E/DX2                !
 ! A124  A(62,63,66)           118.4207         estimate D2E/DX2                !
 ! A125  A(64,63,66)           121.0909         estimate D2E/DX2                !
 ! A126  A(59,64,63)           120.7345         estimate D2E/DX2                !
 ! A127  A(59,64,65)           119.4691         estimate D2E/DX2                !
 ! A128  A(63,64,65)           119.7961         estimate D2E/DX2                !
 ! A129  A(62,67,68)           118.408          estimate D2E/DX2                !
 ! A130  A(67,68,69)           111.5726         estimate D2E/DX2                !
 ! A131  A(67,68,70)           111.5242         estimate D2E/DX2                !
 ! A132  A(67,68,71)           105.8513         estimate D2E/DX2                !
 ! A133  A(69,68,70)           109.3176         estimate D2E/DX2                !
 ! A134  A(69,68,71)           109.2315         estimate D2E/DX2                !
 ! A135  A(70,68,71)           109.2528         estimate D2E/DX2                !
 ! A136  A(6,74,75)            120.716          estimate D2E/DX2                !
 ! A137  A(6,74,77)            119.4946         estimate D2E/DX2                !
 ! A138  A(75,74,77)           119.7892         estimate D2E/DX2                !
 ! A139  A(3,75,74)            120.479          estimate D2E/DX2                !
 ! A140  A(3,75,76)            118.4235         estimate D2E/DX2                !
 ! A141  A(74,75,76)           121.0898         estimate D2E/DX2                !
 ! A142  L(45,46,47,18,-1)     178.6005         estimate D2E/DX2                !
 ! A143  L(45,46,47,18,-2)     180.025          estimate D2E/DX2                !
 ! D1    D(80,1,2,3)           179.668          estimate D2E/DX2                !
 ! D2    D(81,1,2,3)           -61.6247         estimate D2E/DX2                !
 ! D3    D(82,1,2,3)            60.9508         estimate D2E/DX2                !
 ! D4    D(1,2,3,4)             -0.1895         estimate D2E/DX2                !
 ! D5    D(1,2,3,75)          -179.9616         estimate D2E/DX2                !
 ! D6    D(2,3,4,5)            179.6999         estimate D2E/DX2                !
 ! D7    D(2,3,4,79)             0.3918         estimate D2E/DX2                !
 ! D8    D(75,3,4,5)            -0.5351         estimate D2E/DX2                !
 ! D9    D(75,3,4,79)         -179.8432         estimate D2E/DX2                !
 ! D10   D(2,3,75,74)          179.3255         estimate D2E/DX2                !
 ! D11   D(2,3,75,76)            0.3261         estimate D2E/DX2                !
 ! D12   D(4,3,75,74)           -0.4603         estimate D2E/DX2                !
 ! D13   D(4,3,75,76)         -179.4598         estimate D2E/DX2                !
 ! D14   D(3,4,5,6)              0.9406         estimate D2E/DX2                !
 ! D15   D(3,4,5,78)          -179.5669         estimate D2E/DX2                !
 ! D16   D(79,4,5,6)          -179.7371         estimate D2E/DX2                !
 ! D17   D(79,4,5,78)           -0.2446         estimate D2E/DX2                !
 ! D18   D(4,5,6,7)            178.5226         estimate D2E/DX2                !
 ! D19   D(4,5,6,74)            -0.3395         estimate D2E/DX2                !
 ! D20   D(78,5,6,7)            -0.9704         estimate D2E/DX2                !
 ! D21   D(78,5,6,74)         -179.8325         estimate D2E/DX2                !
 ! D22   D(5,6,7,8)            130.3314         estimate D2E/DX2                !
 ! D23   D(5,6,7,59)           -49.3856         estimate D2E/DX2                !
 ! D24   D(74,6,7,8)           -50.8327         estimate D2E/DX2                !
 ! D25   D(74,6,7,59)          129.4502         estimate D2E/DX2                !
 ! D26   D(5,6,74,75)           -0.6667         estimate D2E/DX2                !
 ! D27   D(5,6,74,77)          179.5283         estimate D2E/DX2                !
 ! D28   D(7,6,74,75)         -179.5266         estimate D2E/DX2                !
 ! D29   D(7,6,74,77)            0.6683         estimate D2E/DX2                !
 ! D30   D(6,7,8,9)            151.1171         estimate D2E/DX2                !
 ! D31   D(6,7,8,13)           -28.7165         estimate D2E/DX2                !
 ! D32   D(59,7,8,9)           -29.1722         estimate D2E/DX2                !
 ! D33   D(59,7,8,13)          150.9942         estimate D2E/DX2                !
 ! D34   D(6,7,59,60)          -49.4981         estimate D2E/DX2                !
 ! D35   D(6,7,59,64)          129.3621         estimate D2E/DX2                !
 ! D36   D(8,7,59,60)          130.7846         estimate D2E/DX2                !
 ! D37   D(8,7,59,64)          -50.3552         estimate D2E/DX2                !
 ! D38   D(7,8,9,10)           179.869          estimate D2E/DX2                !
 ! D39   D(7,8,9,58)            -1.2419         estimate D2E/DX2                !
 ! D40   D(13,8,9,10)           -0.2919         estimate D2E/DX2                !
 ! D41   D(13,8,9,58)          178.5972         estimate D2E/DX2                !
 ! D42   D(7,8,13,12)          179.9289         estimate D2E/DX2                !
 ! D43   D(7,8,13,14)           -0.9838         estimate D2E/DX2                !
 ! D44   D(9,8,13,12)            0.09           estimate D2E/DX2                !
 ! D45   D(9,8,13,14)          179.1774         estimate D2E/DX2                !
 ! D46   D(8,9,10,11)            0.1103         estimate D2E/DX2                !
 ! D47   D(8,9,10,57)          177.8067         estimate D2E/DX2                !
 ! D48   D(58,9,10,11)        -178.7783         estimate D2E/DX2                !
 ! D49   D(58,9,10,57)          -1.0818         estimate D2E/DX2                !
 ! D50   D(9,10,11,12)           0.2694         estimate D2E/DX2                !
 ! D51   D(9,10,11,16)        -179.4251         estimate D2E/DX2                !
 ! D52   D(57,10,11,12)       -177.4095         estimate D2E/DX2                !
 ! D53   D(57,10,11,16)          2.8961         estimate D2E/DX2                !
 ! D54   D(10,11,12,13)         -0.474          estimate D2E/DX2                !
 ! D55   D(10,11,12,15)       -178.3467         estimate D2E/DX2                !
 ! D56   D(16,11,12,13)        179.2153         estimate D2E/DX2                !
 ! D57   D(16,11,12,15)          1.3426         estimate D2E/DX2                !
 ! D58   D(10,11,16,17)       -154.2856         estimate D2E/DX2                !
 ! D59   D(10,11,16,20)         25.2569         estimate D2E/DX2                !
 ! D60   D(12,11,16,17)         26.0359         estimate D2E/DX2                !
 ! D61   D(12,11,16,20)       -154.4215         estimate D2E/DX2                !
 ! D62   D(11,12,13,8)           0.3009         estimate D2E/DX2                !
 ! D63   D(11,12,13,14)       -178.7863         estimate D2E/DX2                !
 ! D64   D(15,12,13,8)         178.1954         estimate D2E/DX2                !
 ! D65   D(15,12,13,14)         -0.8917         estimate D2E/DX2                !
 ! D66   D(11,16,17,18)        179.6889         estimate D2E/DX2                !
 ! D67   D(20,16,17,18)          0.0684         estimate D2E/DX2                !
 ! D68   D(11,16,20,19)       -179.3724         estimate D2E/DX2                !
 ! D69   D(11,16,20,21)          1.8377         estimate D2E/DX2                !
 ! D70   D(17,16,20,19)          0.2127         estimate D2E/DX2                !
 ! D71   D(17,16,20,21)       -178.5772         estimate D2E/DX2                !
 ! D72   D(16,17,18,19)         -0.3317         estimate D2E/DX2                !
 ! D73   D(16,17,18,23)        179.1308         estimate D2E/DX2                !
 ! D74   D(17,18,19,20)          0.5144         estimate D2E/DX2                !
 ! D75   D(17,18,19,22)       -178.7318         estimate D2E/DX2                !
 ! D76   D(23,18,19,20)       -178.9126         estimate D2E/DX2                !
 ! D77   D(23,18,19,22)          1.8412         estimate D2E/DX2                !
 ! D78   D(17,18,23,24)         23.2052         estimate D2E/DX2                !
 ! D79   D(17,18,23,27)       -158.387          estimate D2E/DX2                !
 ! D80   D(19,18,23,24)       -157.4326         estimate D2E/DX2                !
 ! D81   D(19,18,23,27)         20.9753         estimate D2E/DX2                !
 ! D82   D(18,19,20,16)         -0.4844         estimate D2E/DX2                !
 ! D83   D(18,19,20,21)        178.296          estimate D2E/DX2                !
 ! D84   D(22,19,20,16)        178.754          estimate D2E/DX2                !
 ! D85   D(22,19,20,21)         -2.4657         estimate D2E/DX2                !
 ! D86   D(18,23,24,25)        179.5635         estimate D2E/DX2                !
 ! D87   D(27,23,24,25)          0.9027         estimate D2E/DX2                !
 ! D88   D(18,23,27,26)       -179.1382         estimate D2E/DX2                !
 ! D89   D(18,23,27,28)          3.1472         estimate D2E/DX2                !
 ! D90   D(24,23,27,26)         -0.5751         estimate D2E/DX2                !
 ! D91   D(24,23,27,28)       -178.2896         estimate D2E/DX2                !
 ! D92   D(23,24,25,26)         -1.011          estimate D2E/DX2                !
 ! D93   D(23,24,25,30)        179.4949         estimate D2E/DX2                !
 ! D94   D(24,25,26,27)          0.8759         estimate D2E/DX2                !
 ! D95   D(24,25,26,29)        178.4139         estimate D2E/DX2                !
 ! D96   D(30,25,26,27)       -179.6636         estimate D2E/DX2                !
 ! D97   D(30,25,26,29)         -2.1256         estimate D2E/DX2                !
 ! D98   D(24,25,30,31)        162.668          estimate D2E/DX2                !
 ! D99   D(24,25,30,34)        -18.0747         estimate D2E/DX2                !
 ! D100  D(26,25,30,31)        -16.7318         estimate D2E/DX2                !
 ! D101  D(26,25,30,34)        162.5254         estimate D2E/DX2                !
 ! D102  D(25,26,27,23)         -0.2007         estimate D2E/DX2                !
 ! D103  D(25,26,27,28)        177.4863         estimate D2E/DX2                !
 ! D104  D(29,26,27,23)       -177.7168         estimate D2E/DX2                !
 ! D105  D(29,26,27,28)         -0.0298         estimate D2E/DX2                !
 ! D106  D(25,30,31,32)        179.4502         estimate D2E/DX2                !
 ! D107  D(25,30,31,56)         -2.0451         estimate D2E/DX2                !
 ! D108  D(34,30,31,32)          0.1203         estimate D2E/DX2                !
 ! D109  D(34,30,31,56)        178.625          estimate D2E/DX2                !
 ! D110  D(25,30,34,33)       -179.8592         estimate D2E/DX2                !
 ! D111  D(31,30,34,33)         -0.4865         estimate D2E/DX2                !
 ! D112  D(30,31,32,33)          0.4575         estimate D2E/DX2                !
 ! D113  D(30,31,32,55)        179.6646         estimate D2E/DX2                !
 ! D114  D(56,31,32,33)       -178.0347         estimate D2E/DX2                !
 ! D115  D(56,31,32,55)          1.1724         estimate D2E/DX2                !
 ! D116  D(31,32,33,34)         -0.8024         estimate D2E/DX2                !
 ! D117  D(31,32,33,35)        179.1949         estimate D2E/DX2                !
 ! D118  D(55,32,33,34)        179.9704         estimate D2E/DX2                !
 ! D119  D(55,32,33,35)         -0.0323         estimate D2E/DX2                !
 ! D120  D(32,33,34,30)          0.7299         estimate D2E/DX2                !
 ! D121  D(35,33,34,30)       -179.2677         estimate D2E/DX2                !
 ! D122  D(32,33,35,36)       -177.5695         estimate D2E/DX2                !
 ! D123  D(32,33,35,40)          2.4898         estimate D2E/DX2                !
 ! D124  D(34,33,35,36)          2.4276         estimate D2E/DX2                !
 ! D125  D(34,33,35,40)       -177.5132         estimate D2E/DX2                !
 ! D126  D(33,35,36,37)       -179.8831         estimate D2E/DX2                !
 ! D127  D(33,35,36,54)          0.2853         estimate D2E/DX2                !
 ! D128  D(40,35,36,37)          0.0619         estimate D2E/DX2                !
 ! D129  D(40,35,36,54)       -179.7697         estimate D2E/DX2                !
 ! D130  D(33,35,40,39)        179.8976         estimate D2E/DX2                !
 ! D131  D(33,35,40,41)         -0.043          estimate D2E/DX2                !
 ! D132  D(36,35,40,39)         -0.0473         estimate D2E/DX2                !
 ! D133  D(36,35,40,41)       -179.9879         estimate D2E/DX2                !
 ! D134  D(35,36,37,38)         -0.0451         estimate D2E/DX2                !
 ! D135  D(35,36,37,53)       -179.9424         estimate D2E/DX2                !
 ! D136  D(54,36,37,38)        179.7895         estimate D2E/DX2                !
 ! D137  D(54,36,37,53)         -0.1077         estimate D2E/DX2                !
 ! D138  D(36,37,38,39)          0.009          estimate D2E/DX2                !
 ! D139  D(36,37,38,44)       -179.9256         estimate D2E/DX2                !
 ! D140  D(53,37,38,39)        179.9038         estimate D2E/DX2                !
 ! D141  D(53,37,38,44)         -0.0307         estimate D2E/DX2                !
 ! D142  D(37,38,39,40)          0.0035         estimate D2E/DX2                !
 ! D143  D(37,38,39,43)        179.9843         estimate D2E/DX2                !
 ! D144  D(44,38,39,40)        179.9443         estimate D2E/DX2                !
 ! D145  D(44,38,39,43)         -0.0749         estimate D2E/DX2                !
 ! D146  D(37,38,44,45)         -0.1666         estimate D2E/DX2                !
 ! D147  D(37,38,44,52)        179.8277         estimate D2E/DX2                !
 ! D148  D(39,38,44,45)        179.9004         estimate D2E/DX2                !
 ! D149  D(39,38,44,52)         -0.1053         estimate D2E/DX2                !
 ! D150  D(38,39,40,35)          0.017          estimate D2E/DX2                !
 ! D151  D(38,39,40,41)        179.9651         estimate D2E/DX2                !
 ! D152  D(43,39,40,35)       -179.9659         estimate D2E/DX2                !
 ! D153  D(43,39,40,41)         -0.0178         estimate D2E/DX2                !
 ! D154  D(38,39,43,42)       -179.9796         estimate D2E/DX2                !
 ! D155  D(40,39,43,42)          0.0026         estimate D2E/DX2                !
 ! D156  D(35,40,41,42)        179.9679         estimate D2E/DX2                !
 ! D157  D(39,40,41,42)          0.0234         estimate D2E/DX2                !
 ! D158  D(40,41,42,43)         -0.0198         estimate D2E/DX2                !
 ! D159  D(41,42,43,39)          0.0098         estimate D2E/DX2                !
 ! D160  D(38,44,45,46)         -0.0218         estimate D2E/DX2                !
 ! D161  D(38,44,45,48)        179.9877         estimate D2E/DX2                !
 ! D162  D(52,44,45,46)        179.984          estimate D2E/DX2                !
 ! D163  D(52,44,45,48)         -0.0065         estimate D2E/DX2                !
 ! D164  D(44,45,48,49)         -0.0248         estimate D2E/DX2                !
 ! D165  D(44,45,48,51)        179.9747         estimate D2E/DX2                !
 ! D166  D(46,45,48,49)        179.9838         estimate D2E/DX2                !
 ! D167  D(46,45,48,51)         -0.0167         estimate D2E/DX2                !
 ! D168  D(45,48,49,50)        179.9889         estimate D2E/DX2                !
 ! D169  D(51,48,49,50)         -0.0106         estimate D2E/DX2                !
 ! D170  D(7,59,60,61)         178.554          estimate D2E/DX2                !
 ! D171  D(7,59,60,73)          -0.9194         estimate D2E/DX2                !
 ! D172  D(64,59,60,61)         -0.3325         estimate D2E/DX2                !
 ! D173  D(64,59,60,73)       -179.8058         estimate D2E/DX2                !
 ! D174  D(7,59,64,63)        -179.5697         estimate D2E/DX2                !
 ! D175  D(7,59,64,65)           0.6312         estimate D2E/DX2                !
 ! D176  D(60,59,64,63)         -0.6853         estimate D2E/DX2                !
 ! D177  D(60,59,64,65)        179.5156         estimate D2E/DX2                !
 ! D178  D(59,60,61,62)          0.9825         estimate D2E/DX2                !
 ! D179  D(59,60,61,72)       -179.6949         estimate D2E/DX2                !
 ! D180  D(73,60,61,62)       -179.5445         estimate D2E/DX2                !
 ! D181  D(73,60,61,72)         -0.2219         estimate D2E/DX2                !
 ! D182  D(60,61,62,63)         -0.6136         estimate D2E/DX2                !
 ! D183  D(60,61,62,67)        179.6217         estimate D2E/DX2                !
 ! D184  D(72,61,62,63)       -179.9216         estimate D2E/DX2                !
 ! D185  D(72,61,62,67)          0.3137         estimate D2E/DX2                !
 ! D186  D(61,62,63,64)         -0.3929         estimate D2E/DX2                !
 ! D187  D(61,62,63,66)       -179.3553         estimate D2E/DX2                !
 ! D188  D(67,62,63,64)        179.3927         estimate D2E/DX2                !
 ! D189  D(67,62,63,66)          0.4302         estimate D2E/DX2                !
 ! D190  D(61,62,67,68)          0.0663         estimate D2E/DX2                !
 ! D191  D(63,62,67,68)       -179.7055         estimate D2E/DX2                !
 ! D192  D(62,63,64,59)          1.0526         estimate D2E/DX2                !
 ! D193  D(62,63,64,65)       -179.149          estimate D2E/DX2                !
 ! D194  D(66,63,64,59)        179.987          estimate D2E/DX2                !
 ! D195  D(66,63,64,65)         -0.2146         estimate D2E/DX2                !
 ! D196  D(62,67,68,69)        -61.5346         estimate D2E/DX2                !
 ! D197  D(62,67,68,70)         61.035          estimate D2E/DX2                !
 ! D198  D(62,67,68,71)        179.7499         estimate D2E/DX2                !
 ! D199  D(6,74,75,3)            1.0712         estimate D2E/DX2                !
 ! D200  D(6,74,75,76)        -179.9563         estimate D2E/DX2                !
 ! D201  D(77,74,75,3)        -179.1243         estimate D2E/DX2                !
 ! D202  D(77,74,75,76)         -0.1518         estimate D2E/DX2                !
 --------------------------------------------------------------------------------
 Trust Radius=3.00D-01 FncErr=1.00D-07 GrdErr=1.00D-06 EigMax=2.50D+02 EigMin=1.00D-04
 Number of steps in this run=    444 maximum allowed number of steps=    492.
 GradGradGradGradGradGradGradGradGradGradGradGradGradGradGradGradGradGrad

 Stoichiometry    C42H28N4O4S4
 Framework group  C1[X(C42H28N4O4S4)]
 Deg. of freedom   240
 Full point group                 C1      NOp   1
 Largest Abelian subgroup         C1      NOp   1
 Largest concise Abelian subgroup C1      NOp   1
                         Standard orientation:                         
 ---------------------------------------------------------------------
 Center     Atomic      Atomic             Coordinates (Angstroms)
 Number     Number       Type             X           Y           Z
 ---------------------------------------------------------------------
      1          6           0       -8.182487    7.128568   -1.105953
      2          8           0       -7.424227    6.343120   -0.197444
      3          6           0       -7.594299    4.990534   -0.210206
      4          6           0       -8.469618    4.302920   -1.054202
      5          6           0       -8.556066    2.912758   -0.982790
      6          6           0       -7.794556    2.189376   -0.065242
      7          7           0       -7.914267    0.769334    0.020459
      8          6           0       -6.774216   -0.050771    0.005910
      9          6           0       -6.768593   -1.297194    0.659475
     10          6           0       -5.644102   -2.104499    0.641031
     11          6           0       -4.467692   -1.716233   -0.024144
     12          6           0       -4.478614   -0.467096   -0.667243
     13          6           0       -5.599876    0.346473   -0.658344
     14          1           0       -5.576908    1.293575   -1.181667
     15          1           0       -3.602711   -0.138034   -1.215670
     16          6           0       -3.298009   -2.590422   -0.040351
     17         16           0       -1.679247   -1.948306   -0.237981
     18          6           0       -0.956467   -3.542922   -0.138653
     19          6           0       -1.937570   -4.494386    0.044753
     20          6           0       -3.244337   -3.961437    0.093471
     21          1           0       -4.130751   -4.571350    0.204916
     22          1           0       -1.716499   -5.548000    0.153267
     23          6           0        0.466090   -3.755461   -0.253515
     24         16           0        1.625967   -2.489340    0.090960
     25          6           0        2.982405   -3.542881   -0.263590
     26          6           0        2.526680   -4.802500   -0.602800
     27          6           0        1.123658   -4.920823   -0.599690
     28          1           0        0.598595   -5.824193   -0.878894
     29          1           0        3.192024   -5.607489   -0.884805
     30          6           0        4.348203   -3.095277   -0.180959
     31          6           0        5.489847   -3.875750   -0.107659
     32          6           0        6.681322   -3.134897   -0.049206
     33          6           0        6.495056   -1.761727   -0.065502
     34         16           0        4.773393   -1.400692   -0.180140
     35          6           0        7.470840   -0.700054   -0.004172
     36          6           0        7.110588    0.645469    0.018098
     37          6           0        8.027128    1.709041    0.075048
     38          6           0        9.404895    1.522915    0.116380
     39          6           0        9.839338    0.149149    0.096587
     40          6           0        8.893835   -0.951326    0.037490
     41          7           0        9.486622   -2.145534    0.026726
     42         16           0       11.103043   -1.887273    0.087207
     43          7           0       11.109838   -0.250030    0.128721
     44          6           0       10.416144    2.547404    0.177016
     45          6           0       10.318038    3.907627    0.206239
     46          6           0        9.086736    4.624554    0.179205
     47          7           0        8.074009    5.181561    0.156275
     48          6           0       11.527344    4.770239    0.270304
     49          8           0       12.682594    4.060852    0.295141
     50          1           0       13.395218    4.714294    0.336154
     51          8           0       11.502773    5.975544    0.297992
     52          1           0       11.429221    2.163911    0.203953
     53          1           0        7.621846    2.710797    0.088106
     54          1           0        6.059098    0.905844   -0.006957
     55          1           0        7.664200   -3.574760    0.016447
     56          1           0        5.457693   -4.956156   -0.073146
     57          1           0       -5.665615   -3.041239    1.185874
     58          1           0       -7.649607   -1.620623    1.198724
     59          6           0       -9.220243    0.201134    0.115168
     60          6           0      -10.139608    0.682707    1.047013
     61          6           0      -11.428031    0.154911    1.127792
     62          6           0      -11.808286   -0.887709    0.279495
     63          6           0      -10.887142   -1.380914   -0.653708
     64          6           0       -9.616649   -0.837159   -0.741459
     65          1           0       -8.917672   -1.217857   -1.476612
     66          1           0      -11.199291   -2.182431   -1.312207
     67          8           0      -13.035193   -1.482953    0.276218
     68          6           0      -14.013089   -1.020418    1.196578
     69          1           0      -13.687246   -1.158105    2.233800
     70          1           0      -14.254822    0.035405    1.029631
     71          1           0      -14.900545   -1.624742    1.016261
     72          1           0      -12.114575    0.557814    1.860159
     73          1           0       -9.849997    1.486332    1.713561
     74          6           0       -6.927688    2.890499    0.786592
     75          6           0       -6.820574    4.268759    0.708116
     76          1           0       -6.152769    4.816060    1.362263
     77          1           0       -6.334436    2.344841    1.510642
     78          1           0       -9.232054    2.385586   -1.645441
     79          1           0       -9.078993    4.830121   -1.775834
     80          1           0       -7.894368    8.161501   -0.918177
     81          1           0       -7.953658    6.873436   -2.146840
     82          1           0       -9.258874    7.016340   -0.932988
 ---------------------------------------------------------------------
 Rotational constants (GHZ):           0.0651937           0.0099802           0.0087139
 Standard basis: 6-311G(d,p) (5D, 7F)
 There are  1226 symmetry adapted cartesian basis functions of A   symmetry.
 There are  1172 symmetry adapted basis functions of A   symmetry.
  1172 basis functions,  2008 primitive gaussians,  1226 cartesian basis functions
   202 alpha electrons      202 beta electrons
       nuclear repulsion energy      6545.1772242524 Hartrees.
 NAtoms=   82 NActive=   82 NUniq=   82 SFac= 1.00D+00 NAtFMM=   60 NAOKFM=T Big=T
 Integral buffers will be    131072 words long.
 Raffenetti 2 integral format.
 Two-electron integral symmetry is turned on.
 One-electron integrals computed using PRISM.
 NBasis=  1172 RedAO= T EigKep=  1.18D-04  NBF=  1172
 NBsUse=  1172 1.00D-06 EigRej= -1.00D+00 NBFU=  1172
 ExpMin= 7.71D-02 ExpMax= 9.34D+04 ExpMxC= 3.17D+03 IAcc=3 IRadAn=         5 AccDes= 0.00D+00
 Harris functional with IExCor= 1009 and IRadAn=       5 diagonalized for initial guess.
 HarFok:  IExCor= 1009 AccDes= 0.00D+00 IRadAn=         5 IDoV= 1 UseB2=F ITyADJ=14
 ICtDFT=  3500011 ScaDFX=  1.000000  1.000000  1.000000  1.000000
 FoFCou: FMM=F IPFlag=           0 FMFlag=      100000 FMFlg1=        2001
         NFxFlg=           0 DoJE=T BraDBF=F KetDBF=T FulRan=T
         wScrn=  0.000000 ICntrl=       500 IOpCl=  0 I1Cent=   200000004 NGrid=           0
         NMat0=    1 NMatS0=      1 NMatT0=    0 NMatD0=    1 NMtDS0=    0 NMtDT0=    0
 Petite list used in FoFCou.
 Requested convergence on RMS density matrix=1.00D-08 within 128 cycles.
 Requested convergence on MAX density matrix=1.00D-06.
 Requested convergence on             energy=1.00D-06.
 No special actions if energy rises.
 Integral accuracy reduced to 1.0D-05 until final iterations.
 Initial convergence to 1.0D-05 achieved.  Increase integral accuracy.
 SCF Done:  E(RPBE1PBE) =  -3727.45744277     A.U. after   18 cycles
            NFock= 18  Conv=0.27D-08     -V/T= 2.0028

 **********************************************************************

            Population analysis using the SCF Density.

 **********************************************************************

 Orbital symmetries:
       Occupied  (A) (A) (A) (A) (A) (A) (A) (A) (A) (A) (A) (A)
                 (A) (A) (A) (A) (A) (A) (A) (A) (A) (A) (A) (A)
                 (A) (A) (A) (A) (A) (A) (A) (A) (A) (A) (A) (A)
                 (A) (A) (A) (A) (A) (A) (A) (A) (A) (A) (A) (A)
                 (A) (A) (A) (A) (A) (A) (A) (A) (A) (A) (A) (A)
                 (A) (A) (A) (A) (A) (A) (A) (A) (A) (A) (A) (A)
                 (A) (A) (A) (A) (A) (A) (A) (A) (A) (A) (A) (A)
                 (A) (A) (A) (A) (A) (A) (A) (A) (A) (A) (A) (A)
                 (A) (A) (A) (A) (A) (A) (A) (A) (A) (A) (A) (A)
                 (A) (A) (A) (A) (A) (A) (A) (A) (A) (A) (A) (A)
                 (A) (A) (A) (A) (A) (A) (A) (A) (A) (A) (A) (A)
                 (A) (A) (A) (A) (A) (A) (A) (A) (A) (A) (A) (A)
                 (A) (A) (A) (A) (A) (A) (A) (A) (A) (A) (A) (A)
                 (A) (A) (A) (A) (A) (A) (A) (A) (A) (A) (A) (A)
                 (A) (A) (A) (A) (A) (A) (A) (A) (A) (A) (A) (A)
                 (A) (A) (A) (A) (A) (A) (A) (A) (A) (A) (A) (A)
                 (A) (A) (A) (A) (A) (A) (A) (A) (A) (A)
       Virtual   (A) (A) (A) (A) (A) (A) (A) (A) (A) (A) (A) (A)
                 (A) (A) (A) (A) (A) (A) (A) (A) (A) (A) (A) (A)
                 (A) (A) (A) (A) (A) (A) (A) (A) (A) (A) (A) (A)
                 (A) (A) (A) (A) (A) (A) (A) (A) (A) (A) (A) (A)
                 (A) (A) (A) (A) (A) (A) (A) (A) (A) (A) (A) (A)
                 (A) (A) (A) (A) (A) (A) (A) (A) (A) (A) (A) (A)
                 (A) (A) (A) (A) (A) (A) (A) (A) (A) (A) (A) (A)
                 (A) (A) (A) (A) (A) (A) (A) (A) (A) (A) (A) (A)
                 (A) (A) (A) (A) (A) (A) (A) (A) (A) (A) (A) (A)
                 (A) (A) (A) (A) (A) (A) (A) (A) (A) (A) (A) (A)
                 (A) (A) (A) (A) (A) (A) (A) (A) (A) (A) (A) (A)
                 (A) (A) (A) (A) (A) (A) (A) (A) (A) (A) (A) (A)
                 (A) (A) (A) (A) (A) (A) (A) (A) (A) (A) (A) (A)
                 (A) (A) (A) (A) (A) (A) (A) (A) (A) (A) (A) (A)
                 (A) (A) (A) (A) (A) (A) (A) (A) (A) (A) (A) (A)
                 (A) (A) (A) (A) (A) (A) (A) (A) (A) (A) (A) (A)
                 (A) (A) (A) (A) (A) (A) (A) (A) (A) (A) (A) (A)
                 (A) (A) (A) (A) (A) (A) (A) (A) (A) (A) (A) (A)
                 (A) (A) (A) (A) (A) (A) (A) (A) (A) (A) (A) (A)
                 (A) (A) (A) (A) (A) (A) (A) (A) (A) (A) (A) (A)
                 (A) (A) (A) (A) (A) (A) (A) (A) (A) (A) (A) (A)
                 (A) (A) (A) (A) (A) (A) (A) (A) (A) (A) (A) (A)
                 (A) (A) (A) (A) (A) (A) (A) (A) (A) (A) (A) (A)
                 (A) (A) (A) (A) (A) (A) (A) (A) (A) (A) (A) (A)
                 (A) (A) (A) (A) (A) (A) (A) (A) (A) (A) (A) (A)
                 (A) (A) (A) (A) (A) (A) (A) (A) (A) (A) (A) (A)
                 (A) (A) (A) (A) (A) (A) (A) (A) (A) (A) (A) (A)
                 (A) (A) (A) (A) (A) (A) (A) (A) (A) (A) (A) (A)
                 (A) (A) (A) (A) (A) (A) (A) (A) (A) (A) (A) (A)
                 (A) (A) (A) (A) (A) (A) (A) (A) (A) (A) (A) (A)
                 (A) (A) (A) (A) (A) (A) (A) (A) (A) (A) (A) (A)
                 (A) (A) (A) (A) (A) (A) (A) (A) (A) (A) (A) (A)
                 (A) (A) (A) (A) (A) (A) (A) (A) (A) (A) (A) (A)
                 (A) (A) (A) (A) (A) (A) (A) (A) (A) (A) (A) (A)
                 (A) (A) (A) (A) (A) (A) (A) (A) (A) (A) (A) (A)
                 (A) (A) (A) (A) (A) (A) (A) (A) (A) (A) (A) (A)
                 (A) (A) (A) (A) (A) (A) (A) (A) (A) (A) (A) (A)
                 (A) (A) (A) (A) (A) (A) (A) (A) (A) (A) (A) (A)
                 (A) (A) (A) (A) (A) (A) (A) (A) (A) (A) (A) (A)
                 (A) (A) (A) (A) (A) (A) (A) (A) (A) (A) (A) (A)
                 (A) (A) (A) (A) (A) (A) (A) (A) (A) (A) (A) (A)
                 (A) (A) (A) (A) (A) (A) (A) (A) (A) (A) (A) (A)
                 (A) (A) (A) (A) (A) (A) (A) (A) (A) (A) (A) (A)
                 (A) (A) (A) (A) (A) (A) (A) (A) (A) (A) (A) (A)
                 (A) (A) (A) (A) (A) (A) (A) (A) (A) (A) (A) (A)
                 (A) (A) (A) (A) (A) (A) (A) (A) (A) (A) (A) (A)
                 (A) (A) (A) (A) (A) (A) (A) (A) (A) (A) (A) (A)
                 (A) (A) (A) (A) (A) (A) (A) (A) (A) (A) (A) (A)
                 (A) (A) (A) (A) (A) (A) (A) (A) (A) (A) (A) (A)
                 (A) (A) (A) (A) (A) (A) (A) (A) (A) (A) (A) (A)
                 (A) (A) (A) (A) (A) (A) (A) (A) (A) (A) (A) (A)
                 (A) (A) (A) (A) (A) (A) (A) (A) (A) (A) (A) (A)
                 (A) (A) (A) (A) (A) (A) (A) (A) (A) (A) (A) (A)
                 (A) (A) (A) (A) (A) (A) (A) (A) (A) (A) (A) (A)
                 (A) (A) (A) (A) (A) (A) (A) (A) (A) (A) (A) (A)
                 (A) (A) (A) (A) (A) (A) (A) (A) (A) (A) (A) (A)
                 (A) (A) (A) (A) (A) (A) (A) (A) (A) (A) (A) (A)
                 (A) (A) (A) (A) (A) (A) (A) (A) (A) (A) (A) (A)
                 (A) (A) (A) (A) (A) (A) (A) (A) (A) (A) (A) (A)
                 (A) (A) (A) (A) (A) (A) (A) (A) (A) (A) (A) (A)
                 (A) (A) (A) (A) (A) (A) (A) (A) (A) (A) (A) (A)
                 (A) (A) (A) (A) (A) (A) (A) (A) (A) (A) (A) (A)
                 (A) (A) (A) (A) (A) (A) (A) (A) (A) (A) (A) (A)
                 (A) (A) (A) (A) (A) (A) (A) (A) (A) (A) (A) (A)
                 (A) (A) (A) (A) (A) (A) (A) (A) (A) (A) (A) (A)
                 (A) (A) (A) (A) (A) (A) (A) (A) (A) (A) (A) (A)
                 (A) (A) (A) (A) (A) (A) (A) (A) (A) (A) (A) (A)
                 (A) (A) (A) (A) (A) (A) (A) (A) (A) (A) (A) (A)
                 (A) (A) (A) (A) (A) (A) (A) (A) (A) (A) (A) (A)
                 (A) (A) (A) (A) (A) (A) (A) (A) (A) (A) (A) (A)
                 (A) (A) (A) (A) (A) (A) (A) (A) (A) (A) (A) (A)
                 (A) (A) (A) (A) (A) (A) (A) (A) (A) (A) (A) (A)
                 (A) (A) (A) (A) (A) (A) (A) (A) (A) (A) (A) (A)
                 (A) (A) (A) (A) (A) (A) (A) (A) (A) (A) (A) (A)
                 (A) (A) (A) (A) (A) (A) (A) (A) (A) (A) (A) (A)
                 (A) (A) (A) (A) (A) (A) (A) (A) (A) (A) (A) (A)
                 (A) (A) (A) (A) (A) (A) (A) (A) (A) (A) (A) (A)
                 (A) (A) (A) (A) (A) (A) (A) (A) (A) (A) (A) (A)
                 (A) (A) (A) (A) (A) (A) (A) (A) (A) (A) (A) (A)
                 (A) (A) (A) (A) (A) (A) (A) (A) (A) (A) (A) (A)
                 (A) (A) (A) (A) (A) (A) (A) (A) (A) (A)
 The electronic state is 1-A.
 Alpha  occ. eigenvalues --  -89.12383 -89.06450 -89.06321 -89.05433 -19.25269
 Alpha  occ. eigenvalues --  -19.23893 -19.23770 -19.19323 -14.43677 -14.43423
 Alpha  occ. eigenvalues --  -14.41951 -14.37768 -10.36486 -10.30208 -10.29983
 Alpha  occ. eigenvalues --  -10.29261 -10.29193 -10.29097 -10.28617 -10.28599
 Alpha  occ. eigenvalues --  -10.28403 -10.28297 -10.28056 -10.28044 -10.27906
 Alpha  occ. eigenvalues --  -10.27684 -10.27615 -10.27537 -10.27227 -10.26902
 Alpha  occ. eigenvalues --  -10.26830 -10.26756 -10.26123 -10.26109 -10.25686
 Alpha  occ. eigenvalues --  -10.24782 -10.24659 -10.24557 -10.24417 -10.24361
 Alpha  occ. eigenvalues --  -10.23951 -10.23439 -10.23420 -10.23411 -10.23405
 Alpha  occ. eigenvalues --  -10.23374 -10.23372 -10.23319 -10.23300 -10.23210
 Alpha  occ. eigenvalues --  -10.22948 -10.22834 -10.22782 -10.22742  -8.10408
 Alpha  occ. eigenvalues --   -8.04835  -8.04695  -8.03811  -6.04192  -6.03614
 Alpha  occ. eigenvalues --   -6.03396  -5.98519  -5.98378  -5.98151  -5.98010
 Alpha  occ. eigenvalues --   -5.97784  -5.97646  -5.97490  -5.97124  -5.96771
 Alpha  occ. eigenvalues --   -1.14682  -1.10360  -1.10247  -1.07059  -1.05465
 Alpha  occ. eigenvalues --   -1.00012  -0.94618  -0.94120  -0.93793  -0.92991
 Alpha  occ. eigenvalues --   -0.91680  -0.90670  -0.89143  -0.89083  -0.87240
 Alpha  occ. eigenvalues --   -0.86522  -0.83041  -0.81470  -0.80735  -0.79774
 Alpha  occ. eigenvalues --   -0.79532  -0.78674  -0.78420  -0.78288  -0.77784
 Alpha  occ. eigenvalues --   -0.77142  -0.76977  -0.76099  -0.75592  -0.73314
 Alpha  occ. eigenvalues --   -0.72886  -0.71366  -0.70152  -0.68064  -0.67052
 Alpha  occ. eigenvalues --   -0.66024  -0.65439  -0.65238  -0.64397  -0.63925
 Alpha  occ. eigenvalues --   -0.63572  -0.62352  -0.61905  -0.61451  -0.59976
 Alpha  occ. eigenvalues --   -0.58688  -0.57722  -0.56619  -0.56514  -0.56379
 Alpha  occ. eigenvalues --   -0.56124  -0.55424  -0.54973  -0.54670  -0.54561
 Alpha  occ. eigenvalues --   -0.53696  -0.52718  -0.51699  -0.51531  -0.51425
 Alpha  occ. eigenvalues --   -0.50445  -0.50331  -0.49493  -0.49177  -0.49076
 Alpha  occ. eigenvalues --   -0.49052  -0.47913  -0.47824  -0.47561  -0.47044
 Alpha  occ. eigenvalues --   -0.46861  -0.46561  -0.45578  -0.44979  -0.44915
 Alpha  occ. eigenvalues --   -0.44519  -0.44396  -0.44308  -0.44099  -0.44000
 Alpha  occ. eigenvalues --   -0.43690  -0.43473  -0.43136  -0.42810  -0.42616
 Alpha  occ. eigenvalues --   -0.42569  -0.41794  -0.41448  -0.41036  -0.40882
 Alpha  occ. eigenvalues --   -0.40773  -0.40464  -0.40323  -0.40256  -0.40203
 Alpha  occ. eigenvalues --   -0.39438  -0.39230  -0.38889  -0.38512  -0.38153
 Alpha  occ. eigenvalues --   -0.38058  -0.37846  -0.37751  -0.37066  -0.37013
 Alpha  occ. eigenvalues --   -0.36294  -0.35579  -0.35326  -0.35020  -0.34870
 Alpha  occ. eigenvalues --   -0.34672  -0.34562  -0.34446  -0.34235  -0.33143
 Alpha  occ. eigenvalues --   -0.32794  -0.31939  -0.30554  -0.30223  -0.29630
 Alpha  occ. eigenvalues --   -0.28609  -0.28255  -0.28040  -0.27942  -0.27406
 Alpha  occ. eigenvalues --   -0.27326  -0.26995  -0.25946  -0.24816  -0.23807
 Alpha  occ. eigenvalues --   -0.21105  -0.18903
 Alpha virt. eigenvalues --   -0.12303  -0.07621  -0.07158  -0.04220  -0.02607
 Alpha virt. eigenvalues --   -0.01795  -0.01260  -0.00815  -0.00661  -0.00379
 Alpha virt. eigenvalues --   -0.00213  -0.00044   0.00776   0.02207   0.02335
 Alpha virt. eigenvalues --    0.02791   0.02960   0.03523   0.04757   0.04849
 Alpha virt. eigenvalues --    0.05224   0.05305   0.05342   0.05524   0.05784
 Alpha virt. eigenvalues --    0.06184   0.06576   0.06715   0.07267   0.07469
 Alpha virt. eigenvalues --    0.08027   0.08318   0.08625   0.09003   0.09174
 Alpha virt. eigenvalues --    0.09394   0.09731   0.10293   0.11008   0.11226
 Alpha virt. eigenvalues --    0.11301   0.11527   0.11710   0.11908   0.11993
 Alpha virt. eigenvalues --    0.12114   0.12525   0.13058   0.13266   0.13671
 Alpha virt. eigenvalues --    0.13861   0.14255   0.14570   0.14634   0.14870
 Alpha virt. eigenvalues --    0.15118   0.15308   0.15763   0.16134   0.16299
 Alpha virt. eigenvalues --    0.16823   0.16899   0.17843   0.18016   0.18187
 Alpha virt. eigenvalues --    0.18460   0.18553   0.19177   0.19515   0.19865
 Alpha virt. eigenvalues --    0.20795   0.21223   0.21665   0.21785   0.21918
 Alpha virt. eigenvalues --    0.22244   0.23202   0.23853   0.23955   0.24154
 Alpha virt. eigenvalues --    0.24290   0.24531   0.24675   0.25021   0.25808
 Alpha virt. eigenvalues --    0.26197   0.26654   0.26857   0.27268   0.28415
 Alpha virt. eigenvalues --    0.28948   0.29323   0.29385   0.29999   0.30415
 Alpha virt. eigenvalues --    0.31302   0.31395   0.31548   0.31634   0.31845
 Alpha virt. eigenvalues --    0.31990   0.32157   0.32326   0.32511   0.32960
 Alpha virt. eigenvalues --    0.33361   0.33421   0.33949   0.34221   0.34614
 Alpha virt. eigenvalues --    0.34894   0.35433   0.35872   0.36441   0.36800
 Alpha virt. eigenvalues --    0.36910   0.37229   0.37430   0.37813   0.37989
 Alpha virt. eigenvalues --    0.38326   0.38658   0.38792   0.39050   0.39082
 Alpha virt. eigenvalues --    0.39207   0.39440   0.39678   0.39893   0.40215
 Alpha virt. eigenvalues --    0.40357   0.40480   0.40705   0.40992   0.41068
 Alpha virt. eigenvalues --    0.41133   0.41463   0.41572   0.41802   0.41989
 Alpha virt. eigenvalues --    0.42124   0.42379   0.42449   0.42541   0.42733
 Alpha virt. eigenvalues --    0.43017   0.43173   0.43734   0.43813   0.43857
 Alpha virt. eigenvalues --    0.44095   0.44579   0.44690   0.44859   0.45186
 Alpha virt. eigenvalues --    0.45299   0.45745   0.45768   0.45909   0.46083
 Alpha virt. eigenvalues --    0.46310   0.46918   0.47354   0.47626   0.47809
 Alpha virt. eigenvalues --    0.47913   0.48447   0.49075   0.49258   0.49425
 Alpha virt. eigenvalues --    0.49621   0.50176   0.50427   0.50710   0.50910
 Alpha virt. eigenvalues --    0.50972   0.51690   0.51988   0.52192   0.52294
 Alpha virt. eigenvalues --    0.52317   0.52454   0.52741   0.53154   0.53240
 Alpha virt. eigenvalues --    0.53439   0.53950   0.54131   0.54454   0.55200
 Alpha virt. eigenvalues --    0.55610   0.55733   0.55927   0.56230   0.56487
 Alpha virt. eigenvalues --    0.56685   0.56957   0.57193   0.58063   0.58129
 Alpha virt. eigenvalues --    0.58605   0.58944   0.59132   0.59319   0.59688
 Alpha virt. eigenvalues --    0.59929   0.60014   0.60112   0.60134   0.60339
 Alpha virt. eigenvalues --    0.60771   0.60841   0.61315   0.61347   0.61958
 Alpha virt. eigenvalues --    0.62310   0.62346   0.62632   0.62801   0.63113
 Alpha virt. eigenvalues --    0.63243   0.63345   0.63723   0.63911   0.64187
 Alpha virt. eigenvalues --    0.64589   0.65055   0.65267   0.65405   0.65679
 Alpha virt. eigenvalues --    0.65769   0.66178   0.66520   0.66626   0.67209
 Alpha virt. eigenvalues --    0.67410   0.67571   0.68007   0.68164   0.68324
 Alpha virt. eigenvalues --    0.68419   0.68563   0.68733   0.69206   0.69413
 Alpha virt. eigenvalues --    0.69844   0.70247   0.70485   0.70756   0.71557
 Alpha virt. eigenvalues --    0.71735   0.72021   0.72138   0.72360   0.72567
 Alpha virt. eigenvalues --    0.73400   0.74093   0.74347   0.75021   0.75330
 Alpha virt. eigenvalues --    0.75832   0.75949   0.76570   0.76859   0.77276
 Alpha virt. eigenvalues --    0.77826   0.78304   0.78638   0.79178   0.79426
 Alpha virt. eigenvalues --    0.79628   0.79851   0.80243   0.80378   0.80554
 Alpha virt. eigenvalues --    0.80602   0.80770   0.81324   0.81346   0.82073
 Alpha virt. eigenvalues --    0.82326   0.82618   0.82885   0.82968   0.83153
 Alpha virt. eigenvalues --    0.83277   0.83503   0.83706   0.84032   0.84229
 Alpha virt. eigenvalues --    0.84463   0.85279   0.85394   0.85445   0.85792
 Alpha virt. eigenvalues --    0.85988   0.86786   0.86933   0.87093   0.87790
 Alpha virt. eigenvalues --    0.88338   0.88492   0.88530   0.88879   0.89142
 Alpha virt. eigenvalues --    0.89429   0.89770   0.90342   0.90651   0.90833
 Alpha virt. eigenvalues --    0.91189   0.91461   0.91930   0.92453   0.92604
 Alpha virt. eigenvalues --    0.92804   0.93280   0.93382   0.93699   0.94137
 Alpha virt. eigenvalues --    0.94320   0.95304   0.95502   0.96054   0.96210
 Alpha virt. eigenvalues --    0.96481   0.96922   0.97149   0.97306   0.97687
 Alpha virt. eigenvalues --    0.97919   0.98636   0.99015   0.99329   0.99504
 Alpha virt. eigenvalues --    0.99688   0.99929   1.00028   1.00479   1.01723
 Alpha virt. eigenvalues --    1.02203   1.02577   1.02795   1.03351   1.03633
 Alpha virt. eigenvalues --    1.03708   1.04093   1.04289   1.04384   1.04868
 Alpha virt. eigenvalues --    1.05013   1.05107   1.05200   1.06183   1.06608
 Alpha virt. eigenvalues --    1.07036   1.07245   1.07593   1.08119   1.08403
 Alpha virt. eigenvalues --    1.09004   1.09226   1.09678   1.10080   1.10437
 Alpha virt. eigenvalues --    1.10992   1.11132   1.12066   1.12805   1.13031
 Alpha virt. eigenvalues --    1.13139   1.13220   1.13377   1.13646   1.14323
 Alpha virt. eigenvalues --    1.14787   1.16096   1.16271   1.16636   1.17010
 Alpha virt. eigenvalues --    1.17196   1.18103   1.19726   1.20625   1.21680
 Alpha virt. eigenvalues --    1.22114   1.23326   1.23749   1.24273   1.24762
 Alpha virt. eigenvalues --    1.25085   1.25354   1.25399   1.25429   1.26127
 Alpha virt. eigenvalues --    1.26663   1.27464   1.28093   1.28522   1.29077
 Alpha virt. eigenvalues --    1.29434   1.30476   1.30508   1.32495   1.33349
 Alpha virt. eigenvalues --    1.33969   1.34229   1.35327   1.36017   1.36180
 Alpha virt. eigenvalues --    1.36775   1.37398   1.37882   1.38165   1.39597
 Alpha virt. eigenvalues --    1.39929   1.40410   1.40659   1.41532   1.41615
 Alpha virt. eigenvalues --    1.42687   1.43540   1.43583   1.43695   1.43886
 Alpha virt. eigenvalues --    1.44743   1.45166   1.45214   1.46375   1.46869
 Alpha virt. eigenvalues --    1.46919   1.47195   1.47573   1.47634   1.47782
 Alpha virt. eigenvalues --    1.48104   1.48880   1.49077   1.49112   1.49427
 Alpha virt. eigenvalues --    1.49808   1.49878   1.50140   1.51147   1.51527
 Alpha virt. eigenvalues --    1.52104   1.52452   1.53106   1.53755   1.53816
 Alpha virt. eigenvalues --    1.53953   1.54789   1.54952   1.55260   1.55371
 Alpha virt. eigenvalues --    1.55678   1.55750   1.56630   1.56850   1.56983
 Alpha virt. eigenvalues --    1.57333   1.57642   1.58084   1.58510   1.58686
 Alpha virt. eigenvalues --    1.59053   1.59368   1.59580   1.59867   1.59932
 Alpha virt. eigenvalues --    1.60066   1.60155   1.60686   1.61127   1.61556
 Alpha virt. eigenvalues --    1.62020   1.62269   1.62378   1.62754   1.62831
 Alpha virt. eigenvalues --    1.63406   1.64504   1.65283   1.65769   1.66294
 Alpha virt. eigenvalues --    1.66954   1.67114   1.67358   1.67503   1.67821
 Alpha virt. eigenvalues --    1.67977   1.68435   1.68717   1.69317   1.69568
 Alpha virt. eigenvalues --    1.70248   1.70415   1.70660   1.70861   1.71108
 Alpha virt. eigenvalues --    1.71893   1.72469   1.73215   1.73799   1.73876
 Alpha virt. eigenvalues --    1.74108   1.74422   1.74554   1.75027   1.75464
 Alpha virt. eigenvalues --    1.75615   1.75849   1.76660   1.77575   1.77730
 Alpha virt. eigenvalues --    1.77946   1.78069   1.78274   1.78630   1.79005
 Alpha virt. eigenvalues --    1.79253   1.79686   1.80738   1.81454   1.82476
 Alpha virt. eigenvalues --    1.82689   1.83743   1.83937   1.84366   1.84943
 Alpha virt. eigenvalues --    1.85842   1.85889   1.86209   1.86495   1.86792
 Alpha virt. eigenvalues --    1.86898   1.87136   1.87480   1.88513   1.88704
 Alpha virt. eigenvalues --    1.88918   1.89804   1.90316   1.90690   1.91266
 Alpha virt. eigenvalues --    1.91476   1.91603   1.91924   1.92508   1.92915
 Alpha virt. eigenvalues --    1.93196   1.93324   1.94151   1.94472   1.94636
 Alpha virt. eigenvalues --    1.95038   1.95367   1.95617   1.96073   1.96429
 Alpha virt. eigenvalues --    1.97492   1.97564   1.97676   1.97999   1.98435
 Alpha virt. eigenvalues --    1.99213   1.99765   1.99882   2.00673   2.01325
 Alpha virt. eigenvalues --    2.01409   2.01846   2.01961   2.02431   2.02688
 Alpha virt. eigenvalues --    2.03079   2.03238   2.03833   2.03889   2.04482
 Alpha virt. eigenvalues --    2.05465   2.05926   2.06219   2.06415   2.07279
 Alpha virt. eigenvalues --    2.07929   2.08110   2.08206   2.08738   2.09218
 Alpha virt. eigenvalues --    2.09440   2.09634   2.10280   2.10587   2.10983
 Alpha virt. eigenvalues --    2.11871   2.12221   2.12498   2.12581   2.12938
 Alpha virt. eigenvalues --    2.13672   2.14016   2.14120   2.15682   2.16963
 Alpha virt. eigenvalues --    2.18677   2.19053   2.19650   2.20152   2.21072
 Alpha virt. eigenvalues --    2.21454   2.22111   2.22861   2.23325   2.23898
 Alpha virt. eigenvalues --    2.24163   2.25855   2.27125   2.28797   2.29346
 Alpha virt. eigenvalues --    2.29468   2.29696   2.30451   2.31039   2.32051
 Alpha virt. eigenvalues --    2.32204   2.32662   2.34280   2.34741   2.34769
 Alpha virt. eigenvalues --    2.34977   2.35289   2.35624   2.35898   2.36357
 Alpha virt. eigenvalues --    2.36926   2.37132   2.37599   2.39152   2.39878
 Alpha virt. eigenvalues --    2.40788   2.41458   2.41647   2.41892   2.42121
 Alpha virt. eigenvalues --    2.42364   2.43374   2.43799   2.46478   2.46863
 Alpha virt. eigenvalues --    2.46910   2.47017   2.48451   2.49133   2.50042
 Alpha virt. eigenvalues --    2.51027   2.51380   2.51724   2.51781   2.53323
 Alpha virt. eigenvalues --    2.53414   2.54277   2.54792   2.55800   2.56773
 Alpha virt. eigenvalues --    2.57210   2.57435   2.57489   2.57635   2.59590
 Alpha virt. eigenvalues --    2.60509   2.60959   2.61328   2.61436   2.61821
 Alpha virt. eigenvalues --    2.61905   2.62291   2.62346   2.62968   2.63196
 Alpha virt. eigenvalues --    2.63709   2.63885   2.64014   2.64160   2.64465
 Alpha virt. eigenvalues --    2.64489   2.65126   2.65321   2.65520   2.66521
 Alpha virt. eigenvalues --    2.66703   2.67122   2.67679   2.67688   2.68298
 Alpha virt. eigenvalues --    2.68408   2.68454   2.69176   2.69407   2.69624
 Alpha virt. eigenvalues --    2.70053   2.70350   2.70462   2.71124   2.71405
 Alpha virt. eigenvalues --    2.72031   2.72246   2.72470   2.72727   2.72894
 Alpha virt. eigenvalues --    2.73901   2.74051   2.74400   2.74850   2.76112
 Alpha virt. eigenvalues --    2.76576   2.76581   2.77134   2.78277   2.78384
 Alpha virt. eigenvalues --    2.78968   2.79446   2.79984   2.80805   2.81006
 Alpha virt. eigenvalues --    2.81943   2.82672   2.82791   2.84184   2.84719
 Alpha virt. eigenvalues --    2.84904   2.85701   2.86456   2.86949   2.87067
 Alpha virt. eigenvalues --    2.88741   2.88885   2.89402   2.89458   2.89769
 Alpha virt. eigenvalues --    2.90290   2.90751   2.91708   2.92438   2.93820
 Alpha virt. eigenvalues --    2.94450   2.94834   2.94895   2.95161   2.95768
 Alpha virt. eigenvalues --    2.96809   2.96984   2.97315   2.97425   2.99039
 Alpha virt. eigenvalues --    2.99165   3.01097   3.01199   3.01321   3.02979
 Alpha virt. eigenvalues --    3.03362   3.04304   3.04527   3.04853   3.05265
 Alpha virt. eigenvalues --    3.05390   3.06130   3.07800   3.08434   3.08722
 Alpha virt. eigenvalues --    3.09764   3.10275   3.10459   3.12529   3.12768
 Alpha virt. eigenvalues --    3.13996   3.14872   3.15361   3.15811   3.16063
 Alpha virt. eigenvalues --    3.18832   3.19316   3.19578   3.20284   3.20958
 Alpha virt. eigenvalues --    3.22208   3.22389   3.23706   3.24433   3.25043
 Alpha virt. eigenvalues --    3.25288   3.25854   3.27426   3.28583   3.30381
 Alpha virt. eigenvalues --    3.30730   3.32850   3.34350   3.34537   3.34853
 Alpha virt. eigenvalues --    3.35052   3.36511   3.36827   3.37196   3.38762
 Alpha virt. eigenvalues --    3.39097   3.40049   3.40278   3.40878   3.42307
 Alpha virt. eigenvalues --    3.43048   3.44303   3.45133   3.46550   3.47332
 Alpha virt. eigenvalues --    3.48539   3.50330   3.51814   3.52516   3.53032
 Alpha virt. eigenvalues --    3.53797   3.55482   3.57400   3.57794   3.58667
 Alpha virt. eigenvalues --    3.59229   3.61257   3.61455   3.63000   3.63446
 Alpha virt. eigenvalues --    3.64075   3.64086   3.68173   3.71726   3.76658
 Alpha virt. eigenvalues --    3.77108   3.77455   3.77608   3.78372   3.78633
 Alpha virt. eigenvalues --    3.80766   3.81079   3.81875   3.84749   3.86544
 Alpha virt. eigenvalues --    3.89436   3.90498   3.92118   3.92591   3.94951
 Alpha virt. eigenvalues --    3.98179   3.99206   4.00132   4.01703   4.02192
 Alpha virt. eigenvalues --    4.06548   4.07950   4.08157   4.08416   4.12201
 Alpha virt. eigenvalues --    4.12745   4.13281   4.13574   4.13807   4.14573
 Alpha virt. eigenvalues --    4.15896   4.16232   4.17023   4.18006   4.19314
 Alpha virt. eigenvalues --    4.19802   4.20087   4.21006   4.22411   4.37680
 Alpha virt. eigenvalues --    4.43509   4.52682   4.56129   4.64651   4.66316
 Alpha virt. eigenvalues --    4.75514   4.80638   4.82402   4.84322   4.86441
 Alpha virt. eigenvalues --    4.86839   4.86958   4.93550   4.93687   4.94645
 Alpha virt. eigenvalues --    5.07239   5.07985   5.16369   5.31638   5.31786
 Alpha virt. eigenvalues --    5.34448   5.63261   5.80345   5.80897   5.81178
 Alpha virt. eigenvalues --    7.81134   7.83915   7.85884   7.86717  17.21158
 Alpha virt. eigenvalues --   17.27803  17.29148  17.30747  17.37609  17.40637
 Alpha virt. eigenvalues --   17.53219  17.53740  17.56094  17.58094  17.60402
 Alpha virt. eigenvalues --   17.60778  23.51305  23.57234  23.60150  23.62305
 Alpha virt. eigenvalues --   23.66098  23.72189  23.76956  23.82889  23.86964
 Alpha virt. eigenvalues --   23.88978  23.92479  23.95074  23.96005  23.96144
 Alpha virt. eigenvalues --   23.96494  23.98958  23.99562  24.00126  24.01855
 Alpha virt. eigenvalues --   24.02005  24.03336  24.03468  24.04064  24.11347
 Alpha virt. eigenvalues --   24.12180  24.12731  24.13885  24.14393  24.14517
 Alpha virt. eigenvalues --   24.16485  24.21043  24.21395  24.21484  24.21722
 Alpha virt. eigenvalues --   24.22554  24.23252  24.23647  24.24863  24.27671
 Alpha virt. eigenvalues --   24.27951  24.28318  24.53621  35.58270  35.71136
 Alpha virt. eigenvalues --   35.75992  35.95381  49.98149  50.04595  50.04727
 Alpha virt. eigenvalues --   50.13718 189.12206 189.13645 189.17262 189.17804
          Condensed to atoms (all electrons):
 Mulliken charges:
               1
     1  C   -0.178158
     2  O   -0.358005
     3  C    0.180751
     4  C   -0.140041
     5  C   -0.070528
     6  C    0.052679
     7  N   -0.551483
     8  C    0.199888
     9  C   -0.120388
    10  C   -0.050783
    11  C    0.002788
    12  C   -0.113225
    13  C   -0.119833
    14  H    0.131973
    15  H    0.113506
    16  C   -0.289965
    17  S    0.340864
    18  C   -0.263604
    19  C   -0.014832
    20  C   -0.060697
    21  H    0.109440
    22  H    0.107808
    23  C   -0.248155
    24  S    0.354201
    25  C   -0.268370
    26  C   -0.017931
    27  C   -0.029961
    28  H    0.111535
    29  H    0.111961
    30  C   -0.244813
    31  C   -0.022786
    32  C   -0.014633
    33  C   -0.314699
    34  S    0.366435
    35  C    0.142412
    36  C   -0.143250
    37  C   -0.037672
    38  C   -0.082321
    39  C    0.148787
    40  C    0.170954
    41  N   -0.545963
    42  S    0.572040
    43  N   -0.515120
    44  C    0.109002
    45  C   -0.214783
    46  C    0.108243
    47  N   -0.280782
    48  C    0.468111
    49  O   -0.348129
    50  H    0.266014
    51  O   -0.329844
    52  H    0.158418
    53  H    0.143284
    54  H    0.119338
    55  H    0.141687
[...]
 Alpha virt. eigenvalues --    0.82649   0.82870   0.82950   0.83134   0.83398
 Alpha virt. eigenvalues --    0.83624   0.83706   0.83914   0.84082   0.84476
 Alpha virt. eigenvalues --    0.84815   0.85591   0.85651   0.85914   0.86026
 Alpha virt. eigenvalues --    0.86312   0.86978   0.87067   0.87299   0.87990
 Alpha virt. eigenvalues --    0.88534   0.88642   0.88858   0.89132   0.89215
 Alpha virt. eigenvalues --    0.89642   0.90178   0.90722   0.91178   0.91388
 Alpha virt. eigenvalues --    0.91501   0.91726   0.92160   0.92800   0.92885
 Alpha virt. eigenvalues --    0.93241   0.93669   0.93897   0.94152   0.94485
 Alpha virt. eigenvalues --    0.94850   0.95730   0.95941   0.96324   0.96498
 Alpha virt. eigenvalues --    0.96968   0.97410   0.97511   0.97855   0.98074
 Alpha virt. eigenvalues --    0.98503   0.98957   0.99258   0.99710   0.99800
 Alpha virt. eigenvalues --    1.00197   1.00262   1.00712   1.01084   1.02015
 Alpha virt. eigenvalues --    1.02479   1.02826   1.03010   1.03567   1.03881
 Alpha virt. eigenvalues --    1.04118   1.04396   1.04468   1.04728   1.05148
 Alpha virt. eigenvalues --    1.05311   1.05359   1.05538   1.06479   1.06956
 Alpha virt. eigenvalues --    1.07238   1.07453   1.07929   1.08177   1.08744
 Alpha virt. eigenvalues --    1.09260   1.09452   1.09858   1.10345   1.10657
 Alpha virt. eigenvalues --    1.11283   1.11483   1.12581   1.13168   1.13245
 Alpha virt. eigenvalues --    1.13362   1.13613   1.13872   1.13977   1.14530
 Alpha virt. eigenvalues --    1.15141   1.16327   1.16472   1.16929   1.17332
 Alpha virt. eigenvalues --    1.17545   1.18388   1.20003   1.20846   1.22015
 Alpha virt. eigenvalues --    1.22521   1.23699   1.24263   1.24757   1.25010
 Alpha virt. eigenvalues --    1.25222   1.25507   1.25565   1.25873   1.26579
 Alpha virt. eigenvalues --    1.26791   1.27868   1.28506   1.28657   1.29508
 Alpha virt. eigenvalues --    1.29904   1.30616   1.30985   1.32741   1.33483
 Alpha virt. eigenvalues --    1.34223   1.34499   1.35622   1.36373   1.36554
 Alpha virt. eigenvalues --    1.37116   1.37568   1.37855   1.38617   1.39779
 Alpha virt. eigenvalues --    1.39934   1.40789   1.41021   1.41725   1.41818
 Alpha virt. eigenvalues --    1.42951   1.43691   1.43783   1.43866   1.44067
 Alpha virt. eigenvalues --    1.45002   1.45394   1.45461   1.46640   1.46932
 Alpha virt. eigenvalues --    1.47105   1.47255   1.47845   1.47909   1.48069
 Alpha virt. eigenvalues --    1.48410   1.48982   1.49233   1.49300   1.49861
 Alpha virt. eigenvalues --    1.50032   1.50250   1.50523   1.51379   1.51749
 Alpha virt. eigenvalues --    1.52444   1.52796   1.53623   1.54105   1.54263
 Alpha virt. eigenvalues --    1.54319   1.55028   1.55209   1.55533   1.55716
 Alpha virt. eigenvalues --    1.55919   1.56167   1.56768   1.57021   1.57073
 Alpha virt. eigenvalues --    1.57567   1.57803   1.58562   1.58869   1.59077
 Alpha virt. eigenvalues --    1.59485   1.59686   1.59924   1.60044   1.60208
 Alpha virt. eigenvalues --    1.60559   1.60763   1.61014   1.61533   1.61928
 Alpha virt. eigenvalues --    1.62291   1.62605   1.62789   1.63201   1.63248
 Alpha virt. eigenvalues --    1.63912   1.64705   1.65544   1.66179   1.66373
 Alpha virt. eigenvalues --    1.67220   1.67278   1.67579   1.67828   1.68305
 Alpha virt. eigenvalues --    1.68462   1.69052   1.69235   1.69709   1.70137
 Alpha virt. eigenvalues --    1.70538   1.70802   1.70913   1.71064   1.71686
 Alpha virt. eigenvalues --    1.71981   1.72845   1.73543   1.74137   1.74369
 Alpha virt. eigenvalues --    1.74530   1.74846   1.75078   1.75239   1.75401
 Alpha virt. eigenvalues --    1.76026   1.76151   1.76877   1.77667   1.78121
 Alpha virt. eigenvalues --    1.78181   1.78479   1.78557   1.78607   1.79359
 Alpha virt. eigenvalues --    1.79468   1.80060   1.81272   1.81976   1.82992
 Alpha virt. eigenvalues --    1.83054   1.84045   1.84360   1.84799   1.85365
 Alpha virt. eigenvalues --    1.86125   1.86306   1.86792   1.86847   1.87240
 Alpha virt. eigenvalues --    1.87338   1.87481   1.87940   1.88739   1.89111
 Alpha virt. eigenvalues --    1.89554   1.90211   1.90796   1.91093   1.91698
 Alpha virt. eigenvalues --    1.91948   1.92021   1.92365   1.92927   1.93439
 Alpha virt. eigenvalues --    1.93624   1.93754   1.94477   1.94866   1.95177
 Alpha virt. eigenvalues --    1.95478   1.95756   1.95958   1.96382   1.96882
 Alpha virt. eigenvalues --    1.97763   1.97932   1.98141   1.98431   1.99036
 Alpha virt. eigenvalues --    1.99495   2.00266   2.00402   2.01071   2.01642
 Alpha virt. eigenvalues --    2.01818   2.02191   2.02442   2.02863   2.03298
 Alpha virt. eigenvalues --    2.03663   2.03818   2.04159   2.04416   2.05242
 Alpha virt. eigenvalues --    2.05986   2.06386   2.06479   2.06897   2.07526
 Alpha virt. eigenvalues --    2.08045   2.08225   2.08646   2.08966   2.09456
 Alpha virt. eigenvalues --    2.09707   2.10114   2.10645   2.11119   2.11322
 Alpha virt. eigenvalues --    2.12264   2.12557   2.12823   2.12955   2.13323
 Alpha virt. eigenvalues --    2.14108   2.14452   2.14532   2.16145   2.17460
 Alpha virt. eigenvalues --    2.19232   2.19739   2.20312   2.20973   2.21621
 Alpha virt. eigenvalues --    2.21996   2.22593   2.23411   2.23829   2.24413
 Alpha virt. eigenvalues --    2.24590   2.26264   2.27617   2.29198   2.29795
 Alpha virt. eigenvalues --    2.29863   2.30263   2.31045   2.31391   2.32280
 Alpha virt. eigenvalues --    2.32670   2.33197   2.34765   2.35256   2.35373
 Alpha virt. eigenvalues --    2.35402   2.35705   2.36202   2.36507   2.36987
 Alpha virt. eigenvalues --    2.37511   2.37981   2.38113   2.39615   2.40348
 Alpha virt. eigenvalues --    2.41345   2.41796   2.42030   2.42062   2.42387
 Alpha virt. eigenvalues --    2.42884   2.43837   2.44340   2.46757   2.46893
 Alpha virt. eigenvalues --    2.47075   2.47466   2.48993   2.49544   2.50615
 Alpha virt. eigenvalues --    2.51378   2.51605   2.52199   2.52494   2.53936
 Alpha virt. eigenvalues --    2.54095   2.54812   2.55232   2.56376   2.57426
 Alpha virt. eigenvalues --    2.57737   2.57882   2.58083   2.58468   2.60213
 Alpha virt. eigenvalues --    2.60803   2.61401   2.61709   2.61883   2.62163
 Alpha virt. eigenvalues --    2.62450   2.62694   2.62703   2.63229   2.63575
 Alpha virt. eigenvalues --    2.64070   2.64167   2.64385   2.64553   2.64794
 Alpha virt. eigenvalues --    2.64882   2.65319   2.65456   2.65824   2.66780
 Alpha virt. eigenvalues --    2.67147   2.67340   2.68079   2.68239   2.68696
 Alpha virt. eigenvalues --    2.68780   2.69138   2.69530   2.69972   2.70315
 Alpha virt. eigenvalues --    2.70520   2.70747   2.70983   2.71611   2.71795
 Alpha virt. eigenvalues --    2.72544   2.72574   2.72707   2.73242   2.73302
 Alpha virt. eigenvalues --    2.74497   2.74729   2.74754   2.75283   2.76688
 Alpha virt. eigenvalues --    2.77068   2.77228   2.77983   2.78333   2.78885
 Alpha virt. eigenvalues --    2.79508   2.80220   2.80599   2.81303   2.81783
 Alpha virt. eigenvalues --    2.82136   2.83299   2.83786   2.84451   2.84993
 Alpha virt. eigenvalues --    2.85204   2.85882   2.87292   2.87713   2.88121
 Alpha virt. eigenvalues --    2.89560   2.89815   2.90087   2.90511   2.90545
 Alpha virt. eigenvalues --    2.90690   2.91256   2.92523   2.93244   2.94211
 Alpha virt. eigenvalues --    2.94910   2.95628   2.95732   2.96042   2.96336
 Alpha virt. eigenvalues --    2.97263   2.97437   2.98125   2.98402   2.99539
 Alpha virt. eigenvalues --    2.99855   3.01441   3.01758   3.02067   3.04365
 Alpha virt. eigenvalues --    3.04630   3.05117   3.06109   3.06177   3.06319
 Alpha virt. eigenvalues --    3.06552   3.06701   3.08689   3.09245   3.10139
 Alpha virt. eigenvalues --    3.10914   3.11466   3.11834   3.13417   3.13846
 Alpha virt. eigenvalues --    3.15373   3.16340   3.16857   3.16968   3.17171
 Alpha virt. eigenvalues --    3.19980   3.20529   3.20718   3.21453   3.21887
 Alpha virt. eigenvalues --    3.23497   3.23717   3.24986   3.25668   3.26119
 Alpha virt. eigenvalues --    3.26374   3.26886   3.28717   3.29689   3.31346
 Alpha virt. eigenvalues --    3.31738   3.33945   3.35430   3.35623   3.36202
 Alpha virt. eigenvalues --    3.36573   3.37146   3.38070   3.38611   3.39865
 Alpha virt. eigenvalues --    3.39988   3.41040   3.41238   3.41796   3.44003
 Alpha virt. eigenvalues --    3.44106   3.45680   3.46375   3.47734   3.48908
 Alpha virt. eigenvalues --    3.49550   3.51355   3.52475   3.53459   3.53866
 Alpha virt. eigenvalues --    3.54632   3.56432   3.58116   3.58613   3.59301
 Alpha virt. eigenvalues --    3.59814   3.62455   3.62670   3.63759   3.64715
 Alpha virt. eigenvalues --    3.65067   3.65293   3.69292   3.72410   3.77317
 Alpha virt. eigenvalues --    3.77364   3.77666   3.77811   3.78410   3.78777
 Alpha virt. eigenvalues --    3.81285   3.81629   3.82706   3.85436   3.87170
 Alpha virt. eigenvalues --    3.90556   3.91739   3.92275   3.92759   3.95105
 Alpha virt. eigenvalues --    3.98594   3.99187   4.00189   4.01694   4.02828
 Alpha virt. eigenvalues --    4.07344   4.08953   4.09197   4.09273   4.12501
 Alpha virt. eigenvalues --    4.12917   4.13943   4.13975   4.14475   4.14632
 Alpha virt. eigenvalues --    4.16355   4.16411   4.17554   4.18459   4.19737
 Alpha virt. eigenvalues --    4.19960   4.20685   4.21223   4.22693   4.38265
 Alpha virt. eigenvalues --    4.44245   4.53334   4.56690   4.65477   4.67210
 Alpha virt. eigenvalues --    4.76698   4.81670   4.82572   4.85413   4.87344
 Alpha virt. eigenvalues --    4.87616   4.87768   4.93827   4.93960   4.94905
 Alpha virt. eigenvalues --    5.07707   5.10083   5.18340   5.33627   5.33752
 Alpha virt. eigenvalues --    5.35586   5.64460   5.82195   5.82317   5.82744
 Alpha virt. eigenvalues --    7.82895   7.86166   7.88125   7.89041  17.21124
 Alpha virt. eigenvalues --   17.27870  17.29226  17.30865  17.38791  17.41304
 Alpha virt. eigenvalues --   17.54103  17.54553  17.57096  17.59082  17.61340
 Alpha virt. eigenvalues --   17.61906  23.51569  23.57607  23.60585  23.62837
 Alpha virt. eigenvalues --   23.66622  23.72865  23.77784  23.83755  23.88041
 Alpha virt. eigenvalues --   23.90697  23.93651  23.96370  23.96506  23.96676
 Alpha virt. eigenvalues --   23.97770  24.00254  24.01024  24.01617  24.02725
 Alpha virt. eigenvalues --   24.03465  24.04101  24.04194  24.06413  24.13021
 Alpha virt. eigenvalues --   24.13839  24.13889  24.15362  24.15687  24.15825
 Alpha virt. eigenvalues --   24.17575  24.22324  24.22854  24.22867  24.23131
 Alpha virt. eigenvalues --   24.23838  24.24819  24.25129  24.26433  24.29107
 Alpha virt. eigenvalues --   24.29340  24.29754  24.54832  35.58770  35.71789
 Alpha virt. eigenvalues --   35.77421  35.95660  49.98503  50.04991  50.05120
 Alpha virt. eigenvalues --   50.14298 189.14149 189.16115 189.19740 189.20342
          Condensed to atoms (all electrons):
 Mulliken charges:
               1
     1  C   -0.183374
     2  O   -0.345410
     3  C    0.179455
     4  C   -0.141526
     5  C   -0.074205
     6  C    0.053833
     7  N   -0.546670
     8  C    0.201767
     9  C   -0.124810
    10  C   -0.047509
    11  C    0.006961
    12  C   -0.116219
    13  C   -0.124671
    14  H    0.133633
    15  H    0.112554
    16  C   -0.295503
    17  S    0.352568
    18  C   -0.267236
    19  C   -0.013836
    20  C   -0.062593
    21  H    0.108023
    22  H    0.106241
    23  C   -0.250907
    24  S    0.363206
    25  C   -0.271485
    26  C   -0.018501
    27  C   -0.029601
    28  H    0.109955
    29  H    0.110472
    30  C   -0.247664
    31  C   -0.022020
    32  C   -0.016959
    33  C   -0.317558
    34  S    0.376557
    35  C    0.144928
    36  C   -0.145064
    37  C   -0.037464
    38  C   -0.080871
    39  C    0.144412
    40  C    0.169750
    41  N   -0.547198
    42  S    0.579453
    43  N   -0.515830
    44  C    0.110323
    45  C   -0.216808
    46  C    0.106008
    47  N   -0.281477
    48  C    0.467816
    49  O   -0.340795
    50  H    0.264836
    51  O   -0.330363
    52  H    0.157229
    53  H    0.142681
    54  H    0.118036
    55  H    0.140829
    56  H    0.109762
    57  H    0.101669
    58  H    0.132496
    59  C    0.057617
    60  C   -0.074940
    61  C   -0.141651
    62  C    0.178997
    63  C   -0.096490
    64  C   -0.071685
    65  H    0.122413
    66  H    0.116731
    67  O   -0.346363
    68  C   -0.183278
    69  H    0.126828
    70  H    0.125871
    71  H    0.143308
    72  H    0.121521
    73  H    0.118940
    74  C   -0.070457
    75  C   -0.095584
    76  H    0.118221
    77  H    0.122660
    78  H    0.117956
    79  H    0.121452
    80  H    0.144079
    81  H    0.127233
    82  H    0.125298
 Sum of Mulliken charges =  -0.00000
 Mulliken charges with hydrogens summed into heavy atoms:
               1
     1  C    0.213236
     2  O   -0.345410
     3  C    0.179455
     4  C   -0.020075
     5  C    0.043751
     6  C    0.053833
     7  N   -0.546670
     8  C    0.201767
     9  C    0.007686
    10  C    0.054160
    11  C    0.006961
    12  C   -0.003665
    13  C    0.008962
    16  C   -0.295503
    17  S    0.352568
    18  C   -0.267236
    19  C    0.092405
    20  C    0.045429
    23  C   -0.250907
    24  S    0.363206
    25  C   -0.271485
    26  C    0.091971
    27  C    0.080354
    30  C   -0.247664
    31  C    0.087742
    32  C    0.123870
    33  C   -0.317558
    34  S    0.376557
    35  C    0.144928
    36  C   -0.027028
    37  C    0.105217
    38  C   -0.080871
    39  C    0.144412
    40  C    0.169750
    41  N   -0.547198
    42  S    0.579453
    43  N   -0.515830
    44  C    0.267552
    45  C   -0.216808
    46  C    0.106008
    47  N   -0.281477
    48  C    0.467816
    49  O   -0.075959
    51  O   -0.330363
    59  C    0.057617
    60  C    0.044000
    61  C   -0.020130
    62  C    0.178997
    63  C    0.020241
    64  C    0.050728
    67  O   -0.346363
    68  C    0.212729
    74  C    0.052202
    75  C    0.022636
 Electronic spatial extent (au):  <R**2>=         106696.5048
 Charge=             -0.0000 electrons
 Dipole moment (field-independent basis, Debye):
    X=             -6.5618    Y=             -5.5572    Z=             -0.1383  Tot=              8.5999
 Quadrupole moment (field-independent basis, Debye-Ang):
   XX=           -239.9978   YY=           -332.7692   ZZ=           -338.8361
   XY=            -66.7537   XZ=             -5.9823   YZ=             -6.1927
 Traceless Quadrupole moment (field-independent basis, Debye-Ang):
   XX=             63.8699   YY=            -28.9015   ZZ=            -34.9684
   XY=            -66.7537   XZ=             -5.9823   YZ=             -6.1927
 Octapole moment (field-independent basis, Debye-Ang**2):
  XXX=           -561.5115  YYY=           -248.6833  ZZZ=              5.6697  XYY=           -410.5587
  XXY=            -66.0724  XXZ=            150.1486  XZZ=            -46.7619  YZZ=             54.1070
  YYZ=            -67.7814  XYZ=             71.6546
 Hexadecapole moment (field-independent basis, Debye-Ang**3):
 XXXX=         -98723.9792 YYYY=         -19461.7305 ZZZZ=           -883.7488 XXXY=          -2830.3828
 XXXZ=          -2056.5940 YYYX=          -3699.6486 YYYZ=           -338.6990 ZZZX=             14.2076
 ZZZY=            -18.1645 XXYY=         -24162.9111 XXZZ=         -20553.7914 YYZZ=          -3463.2924
 XXYZ=           -564.8576 YYXZ=            404.4329 ZZXY=             38.4615
 N-N= 6.589043910689D+03 E-N=-2.193800673697D+04  KE= 3.718061656168D+03
 1\1\GINC-CN113\FOpt\RPBE1PBE\6-311G(d,p)\C42H28N4O4S4\R2532\09-Jul-202
 1\0\\#N PBE1PBE/6-311G(d,p) OPT\\C61H46O6N4S3\\0,1\C,-7.9546698556,7.0
 96150778,-0.9803780571\O,-7.2089981368,6.2969795352,-0.0919507275\C,-7
 .4090187845,4.9581317871,-0.1242188493\C,-8.3116187169,4.3092371956,-0
 .9643699544\C,-8.4279909911,2.9239723562,-0.9196042656\C,-7.6701377793
 ,2.168260941,-0.0312094078\N,-7.8186832913,0.7595064707,0.0262052921\C
 ,-6.7010915286,-0.0768599963,0.0147941451\C,-6.7333773101,-1.334364134
 8,0.6364794729\C,-5.6253462176,-2.1589153257,0.6228076432\C,-4.4334912
 89,-1.7759418022,-0.0069506136\C,-4.4074458096,-0.5170069546,-0.619875
 7165\C,-5.5107016676,0.3150433743,-0.614333298\H,-5.4622060596,1.27603
 43563,-1.1130398029\H,-3.5122635808,-0.1927713825,-1.1421134359\C,-3.2
 80641471,-2.6644995619,-0.0187742552\S,-1.6693293513,-2.0453654303,-0.
 1985251684\C,-0.9656814418,-3.630262523,-0.1113799865\C,-1.9492499581,
 -4.5777794842,0.05778836\C,-3.2474993213,-4.0348919089,0.1030899821\H,
 -4.1437085775,-4.6341034386,0.2032305486\H,-1.7336418966,-5.634452798,
 0.1561401154\C,0.4543353607,-3.844358074,-0.2180328176\S,1.5958547707,
 -2.5784602137,0.1011699855\C,2.9489527747,-3.6152445859,-0.2297951269\
 C,2.5112544715,-4.8832798441,-0.5475400662\C,1.1127553479,-5.011651993
 2,-0.5434084073\H,0.5900267685,-5.9226136256,-0.8052039803\H,3.1875995
 803,-5.6860540144,-0.8129201109\C,4.3057624863,-3.147794517,-0.1538032
 189\C,5.4569064447,-3.9074329449,-0.0731047948\C,6.6291914198,-3.14202
 25021,-0.0238735375\C,6.4052834455,-1.7779683028,-0.0556559677\S,4.693
 644956,-1.4614830059,-0.1710877461\C,7.3499765951,-0.6927165177,-0.008
 180567\C,6.9531084721,0.637907771,-0.0062386885\C,7.8393588794,1.72359
 44676,0.0366267978\C,9.2168165788,1.5708868343,0.0830945121\C,9.682868
 66,0.214145859,0.084417768\C,8.7718202083,-0.9045384439,0.0395348099\N
 ,9.3961217095,-2.0796821215,0.0474074129\S,10.9875918175,-1.7744437392
 ,0.1070492174\N,10.9600300628,-0.1531293118,0.1249754377\C,10.20150360
 43,2.616178687,0.1299667368\C,10.0661077903,3.9689573327,0.1377582991\
 C,8.817634751,4.6475030515,0.0970326928\N,7.7900700256,5.1744253554,0.
 0632163972\C,11.2459603439,4.8631891885,0.1905453841\O,12.4108892433,4
 .1920278068,0.2282250141\H,13.1008150716,4.8658423786,0.2604434633\O,1
 1.1826621704,6.0639448787,0.1992652978\H,11.2259419252,2.2581948534,0.
 1646259273\H,7.4095302256,2.7171688797,0.0339503384\H,5.8930295893,0.8
 674295137,-0.0373002189\H,7.6252186575,-3.5549033109,0.0459246498\H,5.
 4426715223,-4.9887448411,-0.0279460709\H,-5.6731432799,-3.1088663759,1
 .1448957937\H,-7.6344456627,-1.6522248948,1.1482030389\C,-9.1274927512
 ,0.2198858785,0.0910476699\C,-10.0608385262,0.7323977394,0.9862283231\
 C,-11.3568925065,0.230383664,1.0381611273\C,-11.730765682,-0.816781835
 9,0.1984648806\C,-10.795628275,-1.3394951194,-0.6985948269\C,-9.516926
 1166,-0.8210119844,-0.7593074572\H,-8.8022470205,-1.2244259713,-1.4686
 860316\H,-11.1048086097,-2.1464626013,-1.3533554622\O,-12.9596549356,-
 1.3859762343,0.1731296442\C,-13.931864421,-0.8931709805,1.0652070223\H
 ,-13.6232097974,-1.0214182511,2.1098129758\H,-14.1495678425,0.16587186
 91,0.880485483\H,-14.831900287,-1.479503729,0.8841991838\H,-12.0579301
 678,0.6572219126,1.7446343224\H,-9.7725373242,1.5432101167,1.646589762
 3\C,-6.7776055255,2.8299227055,0.819393894\C,-6.6404965833,4.203128561
 2,0.7658150041\H,-5.9498751659,4.723352108,1.4199039611\H,-6.185637301
 ,2.2538085218,1.5225371801\H,-9.1269163557,2.422402872,-1.5803656377\H
 ,-8.9208677733,4.8657237913,-1.6657021354\H,-7.6431464716,8.123424099,
 -0.7954683457\H,-7.7457576263,6.8397041122,-2.0260437886\H,-9.03220268
 58,7.0082650248,-0.7951094244\\Version=ES64L-G16RevB.01\State=1-A\HF=-
 3727.460171\RMSD=3.761e-09\RMSF=3.188e-06\Dipole=-2.5772577,-2.1915558
 ,-0.051469\Quadrupole=47.6760133,-21.6882704,-25.9877429,-49.4956511,-
 4.5109641,-4.561254\PG=C01 [X(C42H28N4O4S4)]\\@


 Children are likely to live up to what you believe of them.
 -- Lady Bird Johnson
 Job cpu time:       0 days  7 hours 16 minutes 39.1 seconds.
 Elapsed time:       0 days  7 hours 17 minutes 18.6 seconds.
 File lengths (MBytes):  RWF=    841 Int=      0 D2E=      0 Chk=    101 Scr=      1
 Normal termination of Gaussian 16 at Fri Jul  9 20:31:28 2021.
