 Entering Gaussian System, Link 0=/usr/local/apps//g09/g09
 Input=mex.com
 Output=mex.out
 Initial command:
 /usr/local/apps//g09/l1.exe "/tmp/bnp.476631.sequoia/Gau-8236.inp" -scrdir="/tmp/bnp.476631.sequoia/"
 Entering Link 1 = /usr/local/apps//g09/l1.exe PID=      8237.
  
 Copyright (c) 1988,1990,1992,1993,1995,1998,2003,2009,2013,
            Gaussian, Inc.  All Rights Reserved.
  
 This is part of the Gaussian(R) 09 program.  It is based on
 the Gaussian(R) 03 system (copyright 2003, Gaussian, Inc.),
 the Gaussian(R) 98 system (copyright 1998, Gaussian, Inc.),
 the Gaussian(R) 94 system (copyright 1995, Gaussian, Inc.),
 the Gaussian 92(TM) system (copyright 1992, Gaussian, Inc.),
 the Gaussian 90(TM) system (copyright 1990, Gaussian, Inc.),
 the Gaussian 88(TM) system (copyright 1988, Gaussian, Inc.),
 the Gaussian 86(TM) system (copyright 1986, Carnegie Mellon
 University), and the Gaussian 82(TM) system (copyright 1983,
 Carnegie Mellon University). Gaussian is a federally registered
 trademark of Gaussian, Inc.
  
 This software contains proprietary and confidential information,
 including trade secrets, belonging to Gaussian, Inc.
  
 This software is provided under written license and may be
 used, copied, transmitted, or stored only in accord with that
 written license.
  
 The following legend is applicable only to US Government
 contracts under FAR:
  
                    RESTRICTED RIGHTS LEGEND
  
 Use, reproduction and disclosure by the US Government is
 subject to restrictions as set forth in subparagraphs (a)
 and (c) of the Commercial Computer Software - Restricted
 Rights clause in FAR 52.227-19.
  
 Gaussian, Inc.
 340 Quinnipiac St., Bldg. 40, Wallingford CT 06492
  
  
 ---------------------------------------------------------------
 Warning -- This program may not be used in any manner that
 competes with the business of Gaussian, Inc. or will provide
 assistance to any competitor of Gaussian, Inc.  The licensee
 of this program is prohibited from giving any competitor of
 Gaussian, Inc. access to this program.  By using this program,
 the user acknowledges that Gaussian, Inc. is engaged in the
 business of creating and licensing software in the field of
 computational chemistry and represents and warrants to the
 licensee that it is not a competitor of Gaussian, Inc. and that
 it will not use this program in any manner prohibited above.
 ---------------------------------------------------------------
  

 Cite this work as:
 Gaussian 09, Revision D.01,
 M. J. Frisch, G. W. Trucks, H. B. Schlegel, G. E. Scuseria, 
 M. A. Robb, J. R. Cheeseman, G. Scalmani, V. Barone, B. Mennucci, 
 G. A. Petersson, H. Nakatsuji, M. Caricato, X. Li, H. P. Hratchian, 
 A. F. Izmaylov, J. Bloino, G. Zheng, J. L. Sonnenberg, M. Hada, 
 M. Ehara, K. Toyota, R. Fukuda, J. Hasegawa, M. Ishida, T. Nakajima, 
 Y. Honda, O. Kitao, H. Nakai, T. Vreven, J. A. Montgomery, Jr., 
 J. E. Peralta, F. Ogliaro, M. Bearpark, J. J. Heyd, E. Brothers, 
 K. N. Kudin, V. N. Staroverov, T. Keith, R. Kobayashi, J. Normand, 
 K. Raghavachari, A. Rendell, J. C. Burant, S. S. Iyengar, J. Tomasi, 
 M. Cossi, N. Rega, J. M. Millam, M. Klene, J. E. Knox, J. B. Cross, 
 V. Bakken, C. Adamo, J. Jaramillo, R. Gomperts, R. E. Stratmann, 
 O. Yazyev, A. J. Austin, R. Cammi, C. Pomelli, J. W. Ochterski, 
 R. L. Martin, K. Morokuma, V. G. Zakrzewski, G. A. Voth, 
 P. Salvador, J. J. Dannenberg, S. Dapprich, A. D. Daniels, 
 O. Farkas, J. B. Foresman, J. V. Ortiz, J. Cioslowski, 
 and D. J. Fox, Gaussian, Inc., Wallingford CT, 2013.
 
 ******************************************
 Gaussian 09:  ES64L-G09RevD.01 24-Apr-2013
                24-Jun-2021 
 ******************************************
 %mem=8gb
 --------------------------------------
 #N TD(NStates=3) LC-wPBE/6-311+G(2d,p)
 --------------------------------------
 1/38=1/1;
 2/12=2,17=6,18=5,40=1/2;
 3/5=4,6=6,7=112,11=9,16=1,25=1,30=1,74=-41/1,2,8,3;
 4//1;
 5/5=2,38=5/2;
 8/6=1,10=2,108=3/1;
 9/41=3,42=1,70=2/14;
 6/7=2,8=2,9=2,10=2/1;
 99/5=1,9=1/99;
 ----
 AP25
 ----
 Symbolic Z-matrix:
 Charge =  0 Multiplicity = 1
 6                    -2.11143  -2.13377   0.02318 
 6                    -1.67074  -0.82103  -0.06088 
 6                    -0.24632  -0.80653  -0.07269 
 16                    1.03414   0.32729  -0.15275 
 6                     2.22159  -0.94931  -0.06806 
 6                     3.63933  -0.63856  -0.08962 
 6                     4.13053   0.61546   0.289 
 6                     5.47967   0.90245   0.2701 
 6                     6.41269  -0.06046  -0.13532 
 7                     7.77529   0.22522  -0.16464 
 6                     8.23406   1.55211  -0.35501 
 6                     9.21361   2.08697   0.47055 
 1                     9.61781   1.48334   1.27581 
 6                     9.69375   3.37572   0.2734 
 6                     9.17709   4.1576   -0.7541 
 6                     8.18905   3.62759  -1.58441 
 6                     7.73259   2.34039  -1.39346 
 1                     6.97358   1.93364  -2.05276 
 1                     7.80211   4.24228  -2.38924 
 8                     9.56611   5.42563  -1.02815 
 6                     10.56038   5.99694  -0.2103 
 1                     10.23436   6.05694   0.83395 
 1                     11.49776   5.43235  -0.26568 
 1                     10.72513   7.00311  -0.59241 
 1                     10.46134   3.75766   0.93415 
 6                     8.73773  -0.7979    0.01766 
 6                     8.63437  -1.70272   1.06611 
 6                     9.58003  -2.70461   1.24546 
 6                     10.66465  -2.79658   0.37931 
 6                     10.78173  -1.8818   -0.66702 
 6                     9.82762  -0.90258  -0.84893 
 1                     9.92449  -0.1987   -1.66823 
 1                     11.62942  -1.96535  -1.33762 
 8                     11.64596  -3.72626   0.46936 
 6                     11.56593  -4.66387   1.51707 
 1                     11.59968  -4.17421   2.49664 
 1                     10.6548  -5.26827   1.44528 
 1                     12.43459  -5.31169   1.4106 
 1                     9.46542  -3.39379   2.07231 
 1                     7.79776  -1.62917   1.75244 
 6                     5.92882  -1.31924  -0.51819 
 6                     4.57839  -1.59517  -0.4948 
 1                     4.23963  -2.56762  -0.83577 
 1                     6.62537  -2.07799  -0.85458 
 1                     5.82387   1.88031   0.58489 
 1                     3.44222   1.37863   0.63939 
 6                     1.61396  -2.18712   0.00458 
 6                     0.21458  -2.10594   0.00241 
 1                     2.18223  -3.10524   0.08715 
 16                   -2.9594    0.295    -0.1186 
 6                    -4.13329  -0.99977  -0.01774 
 6                    -3.4989   -2.2344    0.04752 
 1                    -4.05358  -3.16261   0.12546 
 6                    -5.5321   -0.74263  -0.03596 
 16                   -6.64583  -2.02582  -0.30882 
 6                    -8.06301  -1.00752  -0.20161 
 6                    -7.64575   0.30128   0.02727 
 6                    -6.23579   0.45566   0.1355 
 6                    -5.86351   1.78161   0.48605 
 6                    -6.94564   2.58293   0.64769 
 16                   -8.47149   1.78124   0.3578 
 6                    -6.87555   4.00376   1.01544 
 8                    -5.84748   4.60007   1.21319 
 8                    -8.09326   4.54848   1.10427 
 6                    -8.11765   5.93305   1.44607 
 1                    -7.65756   6.09093   2.42241 
 1                    -7.5793    6.51718   0.69867 
 1                    -9.16867   6.21153   1.46639 
 1                    -4.85867   2.15181   0.63559 
 6                    -9.31706  -1.65213  -0.2788 
 6                    -10.55827  -1.15423  -0.56722 
 6                    -10.75232   0.14303  -1.10423 
 7                    -10.88875   1.18723  -1.57601 
 6                    -11.77604  -2.00686  -0.52743 
 8                    -11.71936  -3.09634   0.27379 
 1                    -10.9808  -3.01946   0.88661 
 8                    -12.76075  -1.7774   -1.16697 
 1                    -9.27149  -2.72908  -0.12089 
 6                    -0.91441  -3.8816    1.38826 
 1                    -0.91822  -3.2109    2.24976 
 1                    -1.78721  -4.53655   1.45637 
 1                    -0.01885  -4.50625   1.44244 
 6                    -0.93389  -4.04299  -1.12614 
 1                    -0.95224  -3.48798  -2.06616 
 1                    -0.03831  -4.66985  -1.11394 
 1                    -1.80672  -4.70074  -1.09642 
 
 Stoichiometry    C42H32N2O6S4
 Framework group  C1[X(C42H32N2O6S4)]
 Deg. of freedom   252
 Full point group                 C1      NOp   1
 Largest Abelian subgroup         C1      NOp   1
 Largest concise Abelian subgroup C1      NOp   1
                         Standard orientation:                         
 ---------------------------------------------------------------------
 Center     Atomic      Atomic             Coordinates (Angstroms)
 Number     Number       Type             X           Y           Z
 ---------------------------------------------------------------------
      1          6           0       -2.123316   -2.180774    0.025430
      2          6           0       -1.683717   -0.867713   -0.059308
      3          6           0       -0.259309   -0.852029   -0.071143
      4         16           0        1.020204    0.282810   -0.151807
      5          6           0        2.208719   -0.992750   -0.066489
      6          6           0        3.626192   -0.680831   -0.088232
      7          6           0        4.116361    0.573787    0.289738
      8          6           0        5.465260    0.861891    0.270661
      9          6           0        6.399077   -0.100447   -0.134279
     10          7           0        7.761432    0.186347   -0.163769
     11          6           0        8.219096    1.513522   -0.354831
     12          6           0        9.198213    2.049624    0.470438
     13          1           0        9.602935    1.446734    1.275997
     14          6           0        9.677282    3.338670    0.272622
     15          6           0        9.159946    4.119593   -0.755272
     16          6           0        8.172334    3.588340   -1.585293
     17          6           0        7.716952    2.300854   -1.393673
     18          1           0        6.958266    1.893134   -2.052756
     19          1           0        7.784875    4.202289   -2.390423
     20          8           0        9.547904    5.387803   -1.029978
     21          6           0       10.541718    5.960358   -0.212438
     22          1           0       10.215668    6.020620    0.831795
     23          1           0       11.479565    5.396527   -0.267537
     24          1           0       10.705629    6.966471   -0.595063
     25          1           0       10.444567    3.721585    0.933160
     26          6           0        8.724725   -0.835879    0.019035
     27          6           0        8.622141   -1.740249    1.067949
     28          6           0        9.568641   -2.741252    1.247791
     29          6           0       10.653316   -2.832770    0.381668
     30          6           0       10.769616   -1.918428   -0.665130
     31          6           0        9.814691   -0.940093   -0.847520
     32          1           0        9.910957   -0.236554   -1.667185
     33          1           0       11.617362   -2.001614   -1.335706
     34          8           0       11.635404   -3.761586    0.472173
     35          6           0       11.556174   -4.698719    1.520367
     36          1           0       11.589530   -4.208537    2.499687
     37          1           0       10.645542   -5.303918    1.448906
     38          1           0       12.425374   -5.345871    1.414215
     39          1           0        9.454616   -3.430111    2.075001
     40          1           0        7.785481   -1.667045    1.754257
     41          6           0        5.916245   -1.359823   -0.516502
     42          6           0        4.566042   -1.636874   -0.492945
     43          1           0        4.228089   -2.609776   -0.833406
     44          1           0        6.613414   -2.118171   -0.852512
     45          1           0        5.808654    1.840199    0.584943
     46          1           0        3.427418    1.336561    0.639747
     47          6           0        1.602120   -2.231033    0.006793
     48          6           0        0.202670   -2.151021    0.004605
     49          1           0        2.171149   -3.148633    0.089824
     50         16           0       -2.973310    0.247220   -0.117573
     51          6           0       -4.146117   -1.048472   -0.016028
     52          6           0       -3.510702   -2.282547    0.049855
     53          1           0       -4.064612   -3.211172    0.128277
     54          6           0       -5.545141   -0.792507   -0.034350
     55         16           0       -6.657808   -2.076765   -0.306538
     56          6           0       -8.075831   -1.059594   -0.199825
     57          6           0       -7.659656    0.249667    0.028378
     58          6           0       -6.249826    0.405284    0.136503
     59          6           0       -5.878646    1.731714    0.486373
     60          6           0       -6.961438    2.532217    0.647624
     61         16           0       -8.486629    1.729109    0.358170
     62          6           0       -6.892525    3.953296    1.014641
     63          8           0       -5.864943    4.550560    1.212066
     64          8           0       -8.110688    4.497048    1.103213
     65          6           0       -8.136223    5.881770    1.444306
     66          1           0       -7.676250    6.040538    2.420565
     67          1           0       -7.598372    6.465969    0.696598
     68          1           0       -9.187474    6.159391    1.464503
     69          1           0       -4.874108    2.102828    0.635701
     70          6           0       -9.329352   -1.705282   -0.276655
     71          6           0      -10.570980   -1.208561   -0.565306
     72          6           0      -10.766117    0.088255   -1.102978
     73          7           0      -10.903425    1.132101   -1.575292
     74          6           0      -11.788033   -2.062193   -0.525064
     75          8           0      -11.730437   -3.151214    0.276709
     76          1           0      -10.991925   -3.073406    0.889478
     77          8           0      -12.772953   -1.833872   -1.164697
     78          1           0       -9.282885   -2.782114   -0.118197
     79          6           0       -0.924816   -3.926904    1.391389
     80          1           0       -0.929169   -3.255766    2.252547
     81          1           0       -1.797069   -4.582549    1.459848
     82          1           0       -0.028736   -4.550783    1.445869
     83          6           0       -0.944206   -4.089601   -1.122926
     84          1           0       -0.963034   -3.535085   -2.063229
     85          1           0       -0.048101   -4.715707   -1.110428
     86          1           0       -1.816485   -4.748061   -1.092861
 ---------------------------------------------------------------------
 Rotational constants (GHZ):      0.0844071      0.0107905      0.0097337
 Standard basis: 6-311+G(2d,p) (5D, 7F)
 There are  1790 symmetry adapted cartesian basis functions of A   symmetry.
 There are  1682 symmetry adapted basis functions of A   symmetry.
  1682 basis functions,  2580 primitive gaussians,  1790 cartesian basis functions
   205 alpha electrons      205 beta electrons
       nuclear repulsion energy      6945.9272646555 Hartrees.
 NAtoms=   86 NActive=   86 NUniq=   86 SFac= 1.00D+00 NAtFMM=   60 NAOKFM=T Big=T
 Integral buffers will be    131072 words long.
 Raffenetti 1 integral format.
 Two-electron integral symmetry is turned on.
 One-electron integrals computed using PRISM.
 NBasis=  1682 RedAO= T EigKep=  1.08D-06  NBF=  1682
 NBsUse=  1662 1.00D-06 EigRej=  8.81D-07 NBFU=  1662
 ExpMin= 4.05D-02 ExpMax= 9.34D+04 ExpMxC= 3.17D+03 IAcc=2 IRadAn=         4 AccDes= 0.00D+00
 Harris functional with IExCor=32609 and IRadAn=       4 diagonalized for initial guess.
 HarFok:  IExCor=32609 AccDes= 0.00D+00 IRadAn=         4 IDoV= 1 UseB2=F ITyADJ=14
 ICtDFT=  3500011 ScaDFX=  1.000000  1.000000  1.000000  1.000000
 FoFCou: FMM=F IPFlag=           0 FMFlag=      100000 FMFlg1=        2001
         NFxFlg=           0 DoJE=T BraDBF=F KetDBF=T FulRan=T
         wScrn=  0.000000 ICntrl=     500 IOpCl=  0 I1Cent=   200000004 NGrid=           0
         NMat0=    1 NMatS0=      1 NMatT0=    0 NMatD0=    1 NMtDS0=    0 NMtDT0=    0
 Petite list used in FoFCou.
 Requested convergence on RMS density matrix=1.00D-08 within 128 cycles.
 Requested convergence on MAX density matrix=1.00D-06.
 Requested convergence on             energy=1.00D-06.
 No special actions if energy rises.
