 Entering Gaussian System, Link 0=/usr/local/apps//g09/g09
 Input=mexc.com
 Output=mexc.out
 Initial command:
 /usr/local/apps//g09/l1.exe "/tmp/bnp.501998.sequoia/Gau-26951.inp" -scrdir="/tmp/bnp.501998.sequoia/"
 Entering Link 1 = /usr/local/apps//g09/l1.exe PID=     26952.
  
 Copyright (c) 1988,1990,1992,1993,1995,1998,2003,2009,2013,
            Gaussian, Inc.  All Rights Reserved.
  
 This is part of the Gaussian(R) 09 program.  It is based on
 the Gaussian(R) 03 system (copyright 2003, Gaussian, Inc.),
 the Gaussian(R) 98 system (copyright 1998, Gaussian, Inc.),
 the Gaussian(R) 94 system (copyright 1995, Gaussian, Inc.),
 the Gaussian 92(TM) system (copyright 1992, Gaussian, Inc.),
 the Gaussian 90(TM) system (copyright 1990, Gaussian, Inc.),
 the Gaussian 88(TM) system (copyright 1988, Gaussian, Inc.),
 the Gaussian 86(TM) system (copyright 1986, Carnegie Mellon
 University), and the Gaussian 82(TM) system (copyright 1983,
 Carnegie Mellon University). Gaussian is a federally registered
 trademark of Gaussian, Inc.
  
 This software contains proprietary and confidential information,
 including trade secrets, belonging to Gaussian, Inc.
  
 This software is provided under written license and may be
 used, copied, transmitted, or stored only in accord with that
 written license.
  
 The following legend is applicable only to US Government
 contracts under FAR:
  
                    RESTRICTED RIGHTS LEGEND
  
 Use, reproduction and disclosure by the US Government is
 subject to restrictions as set forth in subparagraphs (a)
 and (c) of the Commercial Computer Software - Restricted
 Rights clause in FAR 52.227-19.
  
 Gaussian, Inc.
 340 Quinnipiac St., Bldg. 40, Wallingford CT 06492
  
  
 ---------------------------------------------------------------
 Warning -- This program may not be used in any manner that
 competes with the business of Gaussian, Inc. or will provide
 assistance to any competitor of Gaussian, Inc.  The licensee
 of this program is prohibited from giving any competitor of
 Gaussian, Inc. access to this program.  By using this program,
 the user acknowledges that Gaussian, Inc. is engaged in the
 business of creating and licensing software in the field of
 computational chemistry and represents and warrants to the
 licensee that it is not a competitor of Gaussian, Inc. and that
 it will not use this program in any manner prohibited above.
 ---------------------------------------------------------------
  

 Cite this work as:
 Gaussian 09, Revision D.01,
 M. J. Frisch, G. W. Trucks, H. B. Schlegel, G. E. Scuseria, 
 M. A. Robb, J. R. Cheeseman, G. Scalmani, V. Barone, B. Mennucci, 
 G. A. Petersson, H. Nakatsuji, M. Caricato, X. Li, H. P. Hratchian, 
 A. F. Izmaylov, J. Bloino, G. Zheng, J. L. Sonnenberg, M. Hada, 
 M. Ehara, K. Toyota, R. Fukuda, J. Hasegawa, M. Ishida, T. Nakajima, 
 Y. Honda, O. Kitao, H. Nakai, T. Vreven, J. A. Montgomery, Jr., 
 J. E. Peralta, F. Ogliaro, M. Bearpark, J. J. Heyd, E. Brothers, 
 K. N. Kudin, V. N. Staroverov, T. Keith, R. Kobayashi, J. Normand, 
 K. Raghavachari, A. Rendell, J. C. Burant, S. S. Iyengar, J. Tomasi, 
 M. Cossi, N. Rega, J. M. Millam, M. Klene, J. E. Knox, J. B. Cross, 
 V. Bakken, C. Adamo, J. Jaramillo, R. Gomperts, R. E. Stratmann, 
 O. Yazyev, A. J. Austin, R. Cammi, C. Pomelli, J. W. Ochterski, 
 R. L. Martin, K. Morokuma, V. G. Zakrzewski, G. A. Voth, 
 P. Salvador, J. J. Dannenberg, S. Dapprich, A. D. Daniels, 
 O. Farkas, J. B. Foresman, J. V. Ortiz, J. Cioslowski, 
 and D. J. Fox, Gaussian, Inc., Wallingford CT, 2013.
 
 ******************************************
 Gaussian 09:  ES64L-G09RevD.01 24-Apr-2013
                11-Sep-2021 
 ******************************************
 %mem=8gb
 ---------------------------------------
 #N CAM-B3LYP/6-311G(d,p) TD(NStates=10)
 ---------------------------------------
 1/38=1/1;
 2/12=2,17=6,18=5,40=1/2;
 3/5=4,6=6,7=101,11=9,16=1,25=1,30=1,74=-40/1,2,8,3;
 4//1;
 5/5=2,38=5/2;
 8/6=1,10=2,108=10/1;
 9/41=10,42=1,70=2/14;
 6/7=2,8=2,9=2,10=2/1;
 99/5=1,9=1/99;
 ----
 Name
 ----
 Symbolic Z-matrix:
 Charge =  0 Multiplicity = 1
 N1                   -4.33447   0.09177  -0.0121 
 C2                   -4.94197  -1.17053   0.00485 
 C3                   -6.32875  -1.21331  -0.21848 
 C4                   -7.00263  -2.4245   -0.21284 
 C5                   -6.31219  -3.61627   0.0132 
 C6                   -4.94063  -3.57427   0.24028 
 C7                   -4.24942  -2.3649    0.24074 
 C8                   -0.47443   0.86058  -0.01803 
 C9                   -1.21852   2.05223   0.00372 
 C10                  -2.65149   1.84521   0.02401 
 N11                  -3.38276   2.96005   0.04289 
 S12                  -2.29831   4.19019   0.04147 
 N13                  -0.886     3.35358   0.01408 
 C14                  -3.03635   0.48572   0.01317 
 S15                  -1.60935  -0.49523  -0.02779 
 O16                   8.05452  -1.57708  -0.01002 
 C17                   6.73819  -1.89147  -0.01713 
 C18                   5.77746  -0.74397  -0.01034 
 C19                   6.30121   0.57136   0.00347 
 N20                   6.7885    1.62405   0.0148 
 C21                   4.4364   -1.03488  -0.01782 
 C22                   3.31771  -0.17076  -0.01434 
 C23                   3.2085    1.21881  -0.00134 
 C24                   1.89824   1.69391  -0.00186 
 C25                   0.9328    0.68008  -0.01457 
 S26                   1.69896  -0.88714  -0.02769 
 O27                   6.38701  -3.04296  -0.02836 
 H28                  -4.97309   0.87595  -0.06911 
 H29                  -6.87043  -0.29063  -0.40082 
 H30                  -8.07192  -2.43854  -0.38834 
 H31                  -6.83889  -4.56257   0.01387 
 H32                  -4.39219  -4.49041   0.42533 
 H33                  -3.18918  -2.36935   0.44643 
 H34                   8.18503  -0.61862  -0.00128 
 H35                   4.23738  -2.10365  -0.02813 
 H36                   4.07209   1.86894   0.00847 
 H37                   1.6266    2.73964   0.0067 
 
                          Input orientation:                          
 ---------------------------------------------------------------------
 Center     Atomic      Atomic             Coordinates (Angstroms)
 Number     Number       Type             X           Y           Z
 ---------------------------------------------------------------------
      1          7           0       -4.334466    0.091766   -0.012098
      2          6           0       -4.941970   -1.170533    0.004853
      3          6           0       -6.328753   -1.213314   -0.218484
      4          6           0       -7.002632   -2.424504   -0.212842
      5          6           0       -6.312191   -3.616267    0.013202
      6          6           0       -4.940634   -3.574271    0.240283
      7          6           0       -4.249417   -2.364901    0.240740
      8          6           0       -0.474431    0.860577   -0.018027
      9          6           0       -1.218523    2.052229    0.003721
     10          6           0       -2.651490    1.845206    0.024011
     11          7           0       -3.382760    2.960053    0.042894
     12         16           0       -2.298314    4.190193    0.041470
     13          7           0       -0.885998    3.353582    0.014083
     14          6           0       -3.036354    0.485715    0.013173
     15         16           0       -1.609346   -0.495226   -0.027785
     16          8           0        8.054517   -1.577076   -0.010016
     17          6           0        6.738194   -1.891467   -0.017132
     18          6           0        5.777462   -0.743968   -0.010336
     19          6           0        6.301212    0.571355    0.003465
     20          7           0        6.788499    1.624046    0.014797
     21          6           0        4.436397   -1.034883   -0.017817
     22          6           0        3.317712   -0.170759   -0.014335
     23          6           0        3.208502    1.218811   -0.001343
     24          6           0        1.898244    1.693908   -0.001857
     25          6           0        0.932798    0.680079   -0.014568
     26         16           0        1.698955   -0.887135   -0.027690
     27          8           0        6.387007   -3.042960   -0.028360
     28          1           0       -4.973091    0.875945   -0.069114
     29          1           0       -6.870426   -0.290628   -0.400821
     30          1           0       -8.071919   -2.438539   -0.388340
     31          1           0       -6.838887   -4.562569    0.013870
     32          1           0       -4.392185   -4.490411    0.425331
     33          1           0       -3.189181   -2.369351    0.446427
     34          1           0        8.185026   -0.618623   -0.001280
     35          1           0        4.237378   -2.103645   -0.028132
     36          1           0        4.072089    1.868944    0.008468
     37          1           0        1.626597    2.739637    0.006703
 ---------------------------------------------------------------------
                    Distance matrix (angstroms):
                    1          2          3          4          5
     1  N    0.000000
     2  C    1.400981   0.000000
     3  C    2.392281   1.405303   0.000000
     4  C    3.673013   2.422016   1.386047   0.000000
     5  C    4.202564   2.803425   2.414153   1.395745   0.000000
     6  C    3.724374   2.415240   2.776951   2.403980   1.390862
     7  C    2.471108   1.400638   2.420884   2.790964   2.423371
     8  C    3.935858   4.907630   6.214040   7.310754   7.356803
     9  C    3.681408   4.924455   6.068575   7.317373   7.620852
    10  C    2.430692   3.786997   4.789114   6.100734   6.574841
    11  N    3.022555   4.415238   5.115094   6.493253   7.199336
    12  S    4.576668   5.977260   6.746103   8.120930   8.777974
    13  N    4.746795   6.076069   7.108742   8.417303   8.833027
    14  C    1.356808   2.524797   3.712177   4.924614   5.249511
    15  S    2.787667   3.400513   4.777533   5.730959   5.644407
    16  O   12.500877  13.002852  14.389379  15.082341  14.510725
    17  C   11.248868  11.702413  13.086082  13.752554  13.163905
    18  C   10.146405  10.727927  12.117098  12.891703  12.426197
    19  C   10.646497  11.377316  12.757363  13.638703  13.290380
    20  N   11.228043  12.058759  13.422643  14.374904  14.109889
    21  C    8.842930   9.379375  10.768498  11.524776  11.054259
    22  C    7.656680   8.319992   9.704787  10.565428  10.227772
    23  C    7.626710   8.493480   9.844878  10.843696  10.678098
    24  C    6.435343   7.415767   8.728250   9.809762   9.778007
    25  C    5.300018   6.159386   7.507106   8.523426   8.423136
    26  S    6.112337   6.647049   8.036597   8.838292   8.463350
    27  O   11.170352  11.482718  12.848125  13.405184  12.712200
    28  H    1.012931   2.048051   2.495022   3.877197   4.688276
    29  H    2.593921   2.158181   1.085360   2.146216   3.397487
    30  H    4.529079   3.399856   2.137441   1.083684   2.155208
    31  H    5.285417   3.886423   3.395841   2.156278   1.083004
    32  H    4.603371   3.391262   3.860590   3.389642   2.149512
    33  H    2.753002   2.168968   3.411076   3.870412   3.390527
    34  H   12.539635  13.138595  14.527581  15.296108  14.803897
    35  H    8.848536   9.226712  10.605284  11.246106  10.657539
    36  H    8.592378   9.512712  10.850315  11.879904  11.743970
    37  H    6.522718   7.644312   8.886176  10.058834  10.169656
                    6          7          8          9         10
     6  C    0.000000
     7  C    1.392967   0.000000
     8  C    6.299331   4.972041   0.000000
     9  C    6.750376   5.362232   1.405055   0.000000
    10  C    5.887078   4.508364   2.389738   1.447986   0.000000
    11  N    6.720366   5.398645   3.587463   2.347254   1.333415
    12  S    8.204163   6.842205   3.796898   2.395467   2.371498
    13  N    8.030342   6.638148   2.526953   1.343205   2.322124
    14  C    4.490139   3.106335   2.589391   2.399701   1.412959
    15  S    4.544212   3.246192   1.768143   2.577453   2.562493
    16  O   13.150110  12.331680   8.870466   9.957977  11.239740
    17  C   11.802250  11.000829   7.719826   8.880457  10.105968
    18  C   11.088328  10.160156   6.454517   7.534104   8.817723
    19  C   11.984215  10.954162   6.781847   7.664164   9.042897
    20  N   12.831442  11.738754   7.303021   8.018470   9.442584
    21  C    9.718221   8.790857   5.263934   6.442736   7.650804
    22  C    8.935827   7.882941   3.929888   5.051676   6.300552
    23  C    9.457295   8.277811   3.700352   4.504793   5.893430
    24  C    8.636121   7.370653   2.514814   3.137302   4.552322
    25  C    7.256834   6.016015   1.418762   2.551727   3.769102
    26  S    7.167751   6.135061   2.788942   4.141561   5.137580
    27  O   11.343276  10.661411   7.894114   9.154565  10.275765
    28  H    4.461076   3.335086   4.498976   3.935191   2.517533
    29  H    3.862308   3.403512   6.510035   6.131610   4.747809
    30  H    3.389690   3.874621   8.291147   8.203033   6.921095
    31  H    2.152060   3.403905   8.361688   8.680101   7.654670
    32  H    1.083675   2.138282   6.646686   7.283957   6.582638
    33  H    2.135864   1.080013   4.244764   4.861055   4.269665
    34  H   13.456491  12.558799   8.784902   9.775490  11.113108
    35  H    9.298962   8.495071   5.566674   6.858510   7.940570
    36  H   10.531453   9.339532   4.657075   5.293788   6.723639
    37  H    9.113096   7.787080   2.818829   2.926986   4.370622
                   11         12         13         14         15
    11  N    0.000000
    12  S    1.639899   0.000000
    13  N    2.527749   1.641738   0.000000
    14  C    2.498645   3.777388   3.584507   0.000000
    15  S    3.884449   4.736309   3.916415   1.732130   0.000000
    16  O   12.304456  11.850956  10.210033  11.281093   9.724246
    17  C   11.223839  10.892589   9.254178  10.059508   8.463511
    18  C    9.880904   9.463973   7.822545   8.899215   7.391015
    19  C    9.974304   9.330020   7.706938   9.337964   7.982199
    20  N   10.258665   9.442245   7.866969   9.890578   8.661231
    21  C    8.780798   8.524158   6.898372   7.625955   6.069789
    22  C    7.396052   7.110609   5.485705   6.387947   4.937749
    23  C    6.817523   6.257473   4.617620   6.287755   5.113735
    24  C    5.430850   4.883074   3.241416   5.080375   4.134751
    25  C    4.881150   4.771177   3.233645   3.974005   2.800716
    26  S    6.374140   6.462368   4.966629   4.930470   3.331433
    27  O   11.466891  11.303016   9.685771  10.062455   8.392414
    28  H    2.623967   4.260387   4.780161   1.977372   3.632712
    29  H    4.788280   6.416976   7.018959   3.933727   5.278255
    30  H    7.163726   8.801099   9.238402   5.836899   6.758056
    31  H    8.278617   9.860447   9.904662   6.320161   6.625188
    32  H    7.528254   8.937815   8.601785   5.173972   4.889889
    33  H    5.348164   6.632138   6.184136   2.891793   2.496618
    34  H   12.108780  11.533731   9.902632  11.275599   9.795185
    35  H    9.149458   9.073726   7.485459   7.720989   6.063926
    36  H    7.534353   6.780215   5.175597   7.241775   6.153805
    37  H    5.014335   4.184525   2.586526   5.179123   4.575681
                   16         17         18         19         20
    16  O    0.000000
    17  C    1.353366   0.000000
    18  C    2.424675   1.496598   0.000000
    19  C    2.773088   2.501374   1.415832   0.000000
    20  N    3.442470   3.516018   2.574940   1.160058   0.000000
    21  C    3.658528   2.456014   1.372277   2.461298   3.550120
    22  C    4.941161   3.828909   2.525659   3.074463   3.907497
    23  C    5.594723   4.704551   3.232977   3.159759   3.602895
    24  C    6.971305   6.023310   4.581664   4.543818   4.890782
    25  C    7.470853   6.349447   5.049623   5.369545   5.931372
    26  S    6.392926   5.138358   4.081056   4.827933   5.675499
    27  O    2.220302   1.203908   2.378494   3.615473   4.684443
    28  H   13.256673  12.033930  10.872073  11.278650  11.785656
    29  H   14.985380  13.707824  12.662032  13.206003  13.798730
    30  H   16.153860  14.824862  13.957787  14.690128  15.411007
    31  H   15.189708  13.837372  13.181599  14.107427  14.965957
    32  H   12.790521  11.438340  10.846537  11.838420  12.750012
    33  H   11.280815   9.949675   9.124209   9.945427  10.755818
    34  H    0.967337   1.927098   2.410842   2.228189   2.641990
    35  H    3.853330   2.509825   2.054482   3.378762   4.517271
    36  H    5.266415   4.609714   3.120250   2.579293   2.727434
    37  H    7.742896   6.897544   5.418992   5.153007   5.281083
                   21         22         23         24         25
    21  C    0.000000
    22  C    1.413569   0.000000
    23  C    2.566541   1.393915   0.000000
    24  C    3.726765   2.343508   1.393734   0.000000
    25  C    3.900809   2.532141   2.338640   1.400035   0.000000
    26  S    2.741444   1.770239   2.591223   2.588854   1.744514
    27  O    2.799529   4.203606   5.316608   6.525919   6.603757
    28  H    9.601685   8.356794   8.189055   6.920176   5.909388
    29  H   11.337762  10.196171  10.199156   8.999285   7.872850
    30  H   12.592280  11.619225  11.864817  10.799567   9.536793
    31  H   11.814297  11.065500  11.592006  10.746218   9.374714
    32  H    9.491097   8.848458   9.515656   8.831636   7.435249
    33  H    7.755370   6.883732   7.348861   6.526326   5.148034
    34  H    3.771706   4.887893   5.304899   6.698614   7.367606
    35  H    1.087183   2.140566   3.478220   4.460229   4.320828
    36  H    2.926708   2.174855   1.080996   2.180905   3.356945
    37  H    4.705590   3.366113   2.194402   1.080470   2.173382
                   26         27         28         29         30
    26  S    0.000000
    27  O    5.159982   0.000000
    28  H    6.901186  12.017125   0.000000
    29  H    8.598217  13.545242   2.251844   0.000000
    30  H    9.899844  14.476030   4.548675   2.461151   0.000000
    31  H    9.295444  13.312974   5.750262   4.292137   2.488703
    32  H    7.091602  10.885400   5.420305   4.945946   4.291000
    33  H    5.129876   9.611584   3.738992   4.311668   4.954064
    34  H    6.491680   3.018446  13.242899  15.064324  16.363073
    35  H    2.814869   2.345894   9.680515  11.260961  12.319119
    36  H    3.637175   5.430194   9.099854  11.161089  12.891423
    37  H    3.627657   7.490071   6.858205   9.030392  11.001399
                   31         32         33         34         35
    31  H    0.000000
    32  H    2.482107   0.000000
    33  H    4.279914   2.438557   0.000000
    34  H   15.532962  13.166586  11.516860   0.000000
    35  H   11.346000   8.965023   7.446448   4.217812   0.000000
    36  H   12.665456  10.595240   8.419085   4.806697   3.976195
    37  H   11.179744   9.416718   7.034688   7.368240   5.502251
                   36         37
    36  H    0.000000
    37  H    2.595870   0.000000
 Stoichiometry    C18H10N4O2S3
 Framework group  C1[X(C18H10N4O2S3)]
 Deg. of freedom   105
 Full point group                 C1      NOp   1
 Largest Abelian subgroup         C1      NOp   1
 Largest concise Abelian subgroup C1      NOp   1
                         Standard orientation:                         
 ---------------------------------------------------------------------
 Center     Atomic      Atomic             Coordinates (Angstroms)
 Number     Number       Type             X           Y           Z
 ---------------------------------------------------------------------
      1          7           0       -4.334466    0.091766   -0.012098
      2          6           0       -4.941970   -1.170533    0.004853
      3          6           0       -6.328753   -1.213314   -0.218484
      4          6           0       -7.002632   -2.424504   -0.212842
      5          6           0       -6.312191   -3.616267    0.013202
      6          6           0       -4.940634   -3.574271    0.240283
      7          6           0       -4.249417   -2.364901    0.240740
      8          6           0       -0.474431    0.860577   -0.018027
      9          6           0       -1.218523    2.052229    0.003721
     10          6           0       -2.651490    1.845206    0.024011
     11          7           0       -3.382760    2.960053    0.042894
     12         16           0       -2.298314    4.190193    0.041470
     13          7           0       -0.885998    3.353582    0.014083
     14          6           0       -3.036354    0.485715    0.013173
     15         16           0       -1.609346   -0.495226   -0.027785
     16          8           0        8.054517   -1.577076   -0.010016
     17          6           0        6.738194   -1.891467   -0.017132
     18          6           0        5.777462   -0.743968   -0.010336
     19          6           0        6.301212    0.571355    0.003465
     20          7           0        6.788499    1.624046    0.014797
     21          6           0        4.436397   -1.034883   -0.017817
     22          6           0        3.317712   -0.170759   -0.014335
     23          6           0        3.208502    1.218811   -0.001343
     24          6           0        1.898244    1.693908   -0.001857
     25          6           0        0.932798    0.680079   -0.014568
     26         16           0        1.698955   -0.887135   -0.027690
     27          8           0        6.387007   -3.042960   -0.028360
     28          1           0       -4.973091    0.875945   -0.069114
     29          1           0       -6.870426   -0.290628   -0.400821
     30          1           0       -8.071919   -2.438539   -0.388340
     31          1           0       -6.838887   -4.562569    0.013870
     32          1           0       -4.392185   -4.490411    0.425331
     33          1           0       -3.189181   -2.369351    0.446427
     34          1           0        8.185026   -0.618623   -0.001280
     35          1           0        4.237378   -2.103645   -0.028132
     36          1           0        4.072089    1.868944    0.008468
     37          1           0        1.626597    2.739637    0.006703
 ---------------------------------------------------------------------
 Rotational constants (GHZ):      0.2686722      0.0634091      0.0513367
 Standard basis: 6-311G(d,p) (5D, 7F)
 There are   597 symmetry adapted cartesian basis functions of A   symmetry.
 There are   570 symmetry adapted basis functions of A   symmetry.
   570 basis functions,   986 primitive gaussians,   597 cartesian basis functions
   105 alpha electrons      105 beta electrons
       nuclear repulsion energy      2574.7241130391 Hartrees.
 NAtoms=   37 NActive=   37 NUniq=   37 SFac= 1.00D+00 NAtFMM=   60 NAOKFM=F Big=F
 Integral buffers will be    131072 words long.
 Raffenetti 1 integral format.
 Two-electron integral symmetry is turned on.
 One-electron integrals computed using PRISM.
 NBasis=   570 RedAO= T EigKep=  1.81D-04  NBF=   570
 NBsUse=   570 1.00D-06 EigRej= -1.00D+00 NBFU=   570
 ExpMin= 7.71D-02 ExpMax= 9.34D+04 ExpMxC= 3.17D+03 IAcc=2 IRadAn=         4 AccDes= 0.00D+00
 Harris functional with IExCor=20419 and IRadAn=       4 diagonalized for initial guess.
 HarFok:  IExCor=20419 AccDes= 0.00D+00 IRadAn=         4 IDoV= 1 UseB2=F ITyADJ=14
 ICtDFT=  3500011 ScaDFX=  1.000000  1.000000  1.000000  1.000000
 FoFCou: FMM=F IPFlag=           0 FMFlag=      100000 FMFlg1=           0
         NFxFlg=           0 DoJE=T BraDBF=F KetDBF=T FulRan=T
         wScrn=  0.000000 ICntrl=     500 IOpCl=  0 I1Cent=   200000004 NGrid=           0
         NMat0=    1 NMatS0=      1 NMatT0=    0 NMatD0=    1 NMtDS0=    0 NMtDT0=    0
 Petite list used in FoFCou.
 Requested convergence on RMS density matrix=1.00D-08 within 128 cycles.
 Requested convergence on MAX density matrix=1.00D-06.
 Requested convergence on             energy=1.00D-06.
 No special actions if energy rises.
 Integral accuracy reduced to 1.0D-05 until final iterations.
 Initial convergence to 1.0D-05 achieved.  Increase integral accuracy.
 SCF Done:  E(RCAM-B3LYP) =  -2255.66731482     A.U. after   20 cycles
            NFock= 20  Conv=0.35D-08     -V/T= 2.0021
 DoSCS=F DFT=T ScalE2(SS,OS)=  1.000000  1.000000
 ExpMin= 7.71D-02 ExpMax= 9.34D+04 ExpMxC= 3.17D+03 IAcc=3 IRadAn=         5 AccDes= 0.00D+00
 HarFok:  IExCor=  205 AccDes= 0.00D+00 IRadAn=         5 IDoV=-2 UseB2=F ITyADJ=14
 ICtDFT= 12500011 ScaDFX=  1.000000  1.000000  1.000000  1.000000
 Range of M.O.s used for correlation:    40   570
 NBasis=   570 NAE=   105 NBE=   105 NFC=    39 NFV=     0
 NROrb=    531 NOA=    66 NOB=    66 NVA=   465 NVB=   465

 **** Warning!!: The largest alpha MO coefficient is  0.19040292D+02

 Would need an additional         78490400000 words for in-memory AO integral storage.
 Orbital symmetries:
       Occupied  (A) (A) (A) (A) (A) (A) (A) (A) (A) (A) (A) (A)
                 (A) (A) (A) (A) (A) (A) (A) (A) (A) (A) (A) (A)
                 (A) (A) (A) (A) (A) (A) (A) (A) (A) (A) (A) (A)
                 (A) (A) (A) (A) (A) (A) (A) (A) (A) (A) (A) (A)
                 (A) (A) (A) (A) (A) (A) (A) (A) (A) (A) (A) (A)
                 (A) (A) (A) (A) (A) (A) (A) (A) (A) (A) (A) (A)
                 (A) (A) (A) (A) (A) (A) (A) (A) (A) (A) (A) (A)
                 (A) (A) (A) (A) (A) (A) (A) (A) (A) (A) (A) (A)
                 (A) (A) (A) (A) (A) (A) (A) (A) (A)
       Virtual   (A) (A) (A) (A) (A) (A) (A) (A) (A) (A) (A) (A)
                 (A) (A) (A) (A) (A) (A) (A) (A) (A) (A) (A) (A)
                 (A) (A) (A) (A) (A) (A) (A) (A) (A) (A) (A) (A)
                 (A) (A) (A) (A) (A) (A) (A) (A) (A) (A) (A) (A)
                 (A) (A) (A) (A) (A) (A) (A) (A) (A) (A) (A) (A)
                 (A) (A) (A) (A) (A) (A) (A) (A) (A) (A) (A) (A)
                 (A) (A) (A) (A) (A) (A) (A) (A) (A) (A) (A) (A)
                 (A) (A) (A) (A) (A) (A) (A) (A) (A) (A) (A) (A)
                 (A) (A) (A) (A) (A) (A) (A) (A) (A) (A) (A) (A)
                 (A) (A) (A) (A) (A) (A) (A) (A) (A) (A) (A) (A)
                 (A) (A) (A) (A) (A) (A) (A) (A) (A) (A) (A) (A)
                 (A) (A) (A) (A) (A) (A) (A) (A) (A) (A) (A) (A)
                 (A) (A) (A) (A) (A) (A) (A) (A) (A) (A) (A) (A)
                 (A) (A) (A) (A) (A) (A) (A) (A) (A) (A) (A) (A)
                 (A) (A) (A) (A) (A) (A) (A) (A) (A) (A) (A) (A)
                 (A) (A) (A) (A) (A) (A) (A) (A) (A) (A) (A) (A)
                 (A) (A) (A) (A) (A) (A) (A) (A) (A) (A) (A) (A)
                 (A) (A) (A) (A) (A) (A) (A) (A) (A) (A) (A) (A)
                 (A) (A) (A) (A) (A) (A) (A) (A) (A) (A) (A) (A)
                 (A) (A) (A) (A) (A) (A) (A) (A) (A) (A) (A) (A)
                 (A) (A) (A) (A) (A) (A) (A) (A) (A) (A) (A) (A)
                 (A) (A) (A) (A) (A) (A) (A) (A) (A) (A) (A) (A)
                 (A) (A) (A) (A) (A) (A) (A) (A) (A) (A) (A) (A)
                 (A) (A) (A) (A) (A) (A) (A) (A) (A) (A) (A) (A)
                 (A) (A) (A) (A) (A) (A) (A) (A) (A) (A) (A) (A)
                 (A) (A) (A) (A) (A) (A) (A) (A) (A) (A) (A) (A)
                 (A) (A) (A) (A) (A) (A) (A) (A) (A) (A) (A) (A)
                 (A) (A) (A) (A) (A) (A) (A) (A) (A) (A) (A) (A)
                 (A) (A) (A) (A) (A) (A) (A) (A) (A) (A) (A) (A)
                 (A) (A) (A) (A) (A) (A) (A) (A) (A) (A) (A) (A)
                 (A) (A) (A) (A) (A) (A) (A) (A) (A) (A) (A) (A)
                 (A) (A) (A) (A) (A) (A) (A) (A) (A) (A) (A) (A)
                 (A) (A) (A) (A) (A) (A) (A) (A) (A) (A) (A) (A)
                 (A) (A) (A) (A) (A) (A) (A) (A) (A) (A) (A) (A)
                 (A) (A) (A) (A) (A) (A) (A) (A) (A) (A) (A) (A)
                 (A) (A) (A) (A) (A) (A) (A) (A) (A) (A) (A) (A)
                 (A) (A) (A) (A) (A) (A) (A) (A) (A) (A) (A) (A)
                 (A) (A) (A) (A) (A) (A) (A) (A) (A) (A) (A) (A)
                 (A) (A) (A) (A) (A) (A) (A) (A) (A)
    40 initial guesses have been made.
 Convergence on wavefunction:    0.001000000000000
 Iteration     1 Dimension    40 NMult     0 NNew     40
 CISAX will form    40 AO SS matrices at one time.
 New state      3 was old state      5
 New state      4 was old state      3
 New state      5 was old state      4
 New state      6 was old state      8
 New state      8 was old state      6
 New state      9 was old state     19
 New state     10 was old state     14
 Iteration     2 Dimension    60 NMult    40 NNew     20
 New state      7 was old state      8
 New state      8 was old state      7
 Iteration     3 Dimension    80 NMult    60 NNew     20
 Iteration     4 Dimension   100 NMult    80 NNew     20
 Iteration     5 Dimension   120 NMult   100 NNew     20
 Iteration     6 Dimension   134 NMult   120 NNew     14
 Iteration     7 Dimension   144 NMult   134 NNew     10
 Iteration     8 Dimension   152 NMult   144 NNew      8
 Iteration     9 Dimension   158 NMult   152 NNew      6
 Iteration    10 Dimension   162 NMult   158 NNew      4
 ***********************************************************************
 Excited states from <AA,BB:AA,BB> singles matrix:
 ***********************************************************************
 
 Ground to excited state transition densities written to RWF  633
 Ground to excited state transition electric dipole moments (Au):
       state          X           Y           Z        Dip. S.      Osc.
         1        -2.8285     -0.5059      0.0134      8.2564      0.3662
         2        -3.5000      0.7321      0.0061     12.7861      0.9085
         3         0.0772     -0.0784     -0.0004      0.0121      0.0011
         4        -0.0584     -1.2467     -0.0014      1.5576      0.1451
         5        -0.2263      0.2994     -0.0044      0.1409      0.0147
         6        -0.9013     -1.1886     -0.0061      2.2251      0.2406
         7         0.1056     -0.5135     -0.0387      0.2764      0.0304
         8         0.0548      0.1610     -0.0269      0.0297      0.0033
         9        -0.0509      0.4871     -0.0070      0.2399      0.0273
        10         0.2265     -0.9320     -0.0092      0.9200      0.1050
 Ground to excited state transition velocity dipole moments (Au):
       state          X           Y           Z        Dip. S.      Osc.
         1         0.1893      0.0320     -0.0004      0.0368      0.3691
         2         0.3636     -0.0779     -0.0002      0.1383      0.8651
         3        -0.0119      0.0124     -0.0038      0.0003      0.0015
         4         0.0022      0.1698      0.0009      0.0288      0.1375
         5         0.0280     -0.0455      0.0002      0.0029      0.0121
         6         0.1433      0.1893      0.0019      0.0564      0.2316
         7        -0.0071      0.0698      0.0046      0.0049      0.0200
         8        -0.0046     -0.0290      0.0060      0.0009      0.0036
         9         0.0112     -0.0740     -0.0019      0.0056      0.0219
        10        -0.0430      0.1397     -0.0011      0.0214      0.0832
 Ground to excited state transition magnetic dipole moments (Au):
       state          X           Y           Z
         1        -0.0062     -0.0072     -0.8800
         2        -0.0023     -0.0157     -0.7551
         3        -0.0865      0.1118     -0.1603
         4        -0.0018     -0.0190     -1.0908
         5         0.0013     -0.0115      0.8401
         6        -0.0176      0.0187     -1.0535
         7        -0.0385      0.1245      0.0070
         8        -0.0200      0.0342      0.7304
         9        -0.1931      1.0592      0.4391
        10        -0.0289      0.3760     -0.6991
 Ground to excited state transition velocity quadrupole moments (Au):
       state          XX          YY          ZZ          XY          XZ          YZ
         1        -0.2662     -0.0297      0.0100     -0.3906     -0.0085      0.0042
         2         2.4184     -0.4555     -0.0131     -0.4540     -0.0048      0.0054
         3        -0.1131      0.0039      0.0041     -0.0496     -0.0174     -0.0594
         4        -3.0200      0.3756      0.0471     -1.0395     -0.0101      0.0217
         5         2.0570     -0.0840     -0.0321      0.3415      0.0095     -0.0056
         6        -2.4965     -0.2982      0.0088     -1.2194     -0.0305      0.0174
         7         1.9362      1.3164     -0.0122     -0.7906     -0.0529     -0.0115
         8        -1.2369      0.0787     -0.0010      0.7503     -0.0780     -0.0224
         9        -0.2694     -0.4601      0.0142      0.2505     -0.1086     -0.0515
        10         0.4001      1.0294     -0.0281     -0.1537      0.0314     -0.0150
 <0|del|b> * <b|rxdel|0> + <0|del|b> * <b|delr+rdel|0>
 Rotatory Strengths (R) in cgs (10**-40 erg-esu-cm/Gauss)
       state          XX          YY          ZZ    R(velocity)    E-M Angle
         1         2.7347     -1.0300    -13.1233     -3.8062       90.36
         2         3.5880      3.8469     -3.9525      1.1608       89.89
         3         6.1705      5.5464      3.8287      5.1819       36.39
         4        -8.9220     -0.0130    -12.6607     -7.1986       91.32
         5         2.7509     -0.0190      0.6468      1.1262       89.04
         6        10.6728      0.6314    -15.8202     -1.5053       90.24
         7        18.7852      8.6263     11.1225     12.8447       11.40
         8        11.8682      0.1531      2.6340      4.8851       80.81
         9      -181.7904     -6.4081   -149.0740   -112.4242      159.19
        10       101.3297      5.1135    118.8142     75.0858       62.00
 1/2[<0|r|b>*<b|rxdel|0> + (<0|rxdel|b>*<b|r|0>)*]
 Rotatory Strengths (R) in cgs (10**-40 erg-esu-cm/Gauss)
       state          XX          YY          ZZ     R(length)
         1       -12.3788     -2.5733      8.3114     -2.2136
         2        -5.7541      8.1292      3.2648      1.8800
         3         4.7215      6.2000     -0.0404      3.6270
         4        -0.0734    -16.7939     -1.0583     -5.9752
         5         0.2139      2.4392      2.6377      1.7636
         6       -11.2388     15.7061     -4.5556     -0.0294
         7         2.8749     45.2208      0.1908     16.0955
         8         0.7738     -3.8961     13.8980      3.5919
         9        -6.9450   -364.8514      2.1800   -123.2054
        10         4.6255    247.7849     -4.5611     82.6164
  1/2[<0|del|b>*<b|r|0> + (<0|r|b>*<b|del|0>)*] (Au)
       state          X           Y           Z        Dip. S.   Osc.(frdel)
         1        -0.5353     -0.0162      0.0000      0.5515      0.3677
         2        -1.2727     -0.0571      0.0000      1.3298      0.8865
         3        -0.0009     -0.0010      0.0000      0.0019      0.0013
         4        -0.0001     -0.2116      0.0000      0.2118      0.1412
         5        -0.0063     -0.0136      0.0000      0.0200      0.0133
         6        -0.1291     -0.2250      0.0000      0.3541      0.2361
         7        -0.0007     -0.0358     -0.0002      0.0368      0.0245
         8        -0.0003     -0.0047     -0.0002      0.0051      0.0034
         9        -0.0006     -0.0360      0.0000      0.0366      0.0244
        10        -0.0097     -0.1302      0.0000      0.1399      0.0933

 Excitation energies and oscillator strengths:
 
 Excited State   1:      Singlet-A      1.8106 eV  684.77 nm  f=0.3662  <S**2>=0.000
     105 ->106         0.69469
 This state for optimization and/or second-order correction.
 Total Energy, E(TD-HF/TD-KS) =  -2255.60077703    
 Copying the excited state density for this state as the 1-particle RhoCI density.
 
 Excited State   2:      Singlet-A      2.9001 eV  427.52 nm  f=0.9085  <S**2>=0.000
     105 ->107         0.68587
 
 Excited State   3:      Singlet-A      3.7417 eV  331.36 nm  f=0.0011  <S**2>=0.000
     105 ->108         0.50134
     105 ->110         0.44891
     105 ->112        -0.11206
 
 Excited State   4:      Singlet-A      3.8012 eV  326.17 nm  f=0.1451  <S**2>=0.000
     104 ->106         0.67521
 
 Excited State   5:      Singlet-A      4.2734 eV  290.13 nm  f=0.0147  <S**2>=0.000
      99 ->106        -0.14403
     102 ->106         0.17159
     103 ->106         0.47930
     103 ->107         0.16399
     104 ->107        -0.11421
     105 ->109         0.36519
     105 ->111        -0.13645
 
 Excited State   6:      Singlet-A      4.4141 eV  280.88 nm  f=0.2406  <S**2>=0.000
     102 ->106        -0.29827
     103 ->106         0.45224
     105 ->109        -0.37213
     105 ->111         0.10177
 
 Excited State   7:      Singlet-A      4.4907 eV  276.09 nm  f=0.0304  <S**2>=0.000
      99 ->106         0.30629
     100 ->106         0.21614
     102 ->106        -0.35001
     104 ->107        -0.16292
     105 ->108        -0.10338
     105 ->109         0.35595
     105 ->110         0.12863
 
 Excited State   8:      Singlet-A      4.6036 eV  269.32 nm  f=0.0033  <S**2>=0.000
     100 ->106         0.26657
     102 ->106         0.34711
     104 ->108        -0.13775
     104 ->110         0.10536
     105 ->108        -0.29550
     105 ->110         0.33148
 
 Excited State   9:      Singlet-A      4.6433 eV  267.02 nm  f=0.0273  <S**2>=0.000
      93 ->106         0.12558
      96 ->106         0.56366
      96 ->107        -0.22045
      96 ->109         0.11924
      99 ->106        -0.21513
 
 Excited State  10:      Singlet-A      4.6562 eV  266.28 nm  f=0.1050  <S**2>=0.000
      96 ->106         0.19547
      99 ->106         0.48274
     101 ->106        -0.12657
     101 ->107        -0.16751
     102 ->106         0.23919
     103 ->107         0.12590
     105 ->108         0.13219
     105 ->110        -0.13229
 SavETr:  write IOETrn=   770 NScale= 10 NData=  16 NLR=1 NState=   10 LETran=     190.

 **********************************************************************

            Population analysis using the SCF density.

 **********************************************************************

 Orbital symmetries:
       Occupied  (A) (A) (A) (A) (A) (A) (A) (A) (A) (A) (A) (A)
                 (A) (A) (A) (A) (A) (A) (A) (A) (A) (A) (A) (A)
                 (A) (A) (A) (A) (A) (A) (A) (A) (A) (A) (A) (A)
                 (A) (A) (A) (A) (A) (A) (A) (A) (A) (A) (A) (A)
                 (A) (A) (A) (A) (A) (A) (A) (A) (A) (A) (A) (A)
                 (A) (A) (A) (A) (A) (A) (A) (A) (A) (A) (A) (A)
                 (A) (A) (A) (A) (A) (A) (A) (A) (A) (A) (A) (A)
                 (A) (A) (A) (A) (A) (A) (A) (A) (A) (A) (A) (A)
                 (A) (A) (A) (A) (A) (A) (A) (A) (A)
       Virtual   (A) (A) (A) (A) (A) (A) (A) (A) (A) (A) (A) (A)
                 (A) (A) (A) (A) (A) (A) (A) (A) (A) (A) (A) (A)
                 (A) (A) (A) (A) (A) (A) (A) (A) (A) (A) (A) (A)
                 (A) (A) (A) (A) (A) (A) (A) (A) (A) (A) (A) (A)
                 (A) (A) (A) (A) (A) (A) (A) (A) (A) (A) (A) (A)
                 (A) (A) (A) (A) (A) (A) (A) (A) (A) (A) (A) (A)
                 (A) (A) (A) (A) (A) (A) (A) (A) (A) (A) (A) (A)
                 (A) (A) (A) (A) (A) (A) (A) (A) (A) (A) (A) (A)
                 (A) (A) (A) (A) (A) (A) (A) (A) (A) (A) (A) (A)
                 (A) (A) (A) (A) (A) (A) (A) (A) (A) (A) (A) (A)
                 (A) (A) (A) (A) (A) (A) (A) (A) (A) (A) (A) (A)
                 (A) (A) (A) (A) (A) (A) (A) (A) (A) (A) (A) (A)
                 (A) (A) (A) (A) (A) (A) (A) (A) (A) (A) (A) (A)
                 (A) (A) (A) (A) (A) (A) (A) (A) (A) (A) (A) (A)
                 (A) (A) (A) (A) (A) (A) (A) (A) (A) (A) (A) (A)
                 (A) (A) (A) (A) (A) (A) (A) (A) (A) (A) (A) (A)
                 (A) (A) (A) (A) (A) (A) (A) (A) (A) (A) (A) (A)
                 (A) (A) (A) (A) (A) (A) (A) (A) (A) (A) (A) (A)
                 (A) (A) (A) (A) (A) (A) (A) (A) (A) (A) (A) (A)
                 (A) (A) (A) (A) (A) (A) (A) (A) (A) (A) (A) (A)
                 (A) (A) (A) (A) (A) (A) (A) (A) (A) (A) (A) (A)
                 (A) (A) (A) (A) (A) (A) (A) (A) (A) (A) (A) (A)
                 (A) (A) (A) (A) (A) (A) (A) (A) (A) (A) (A) (A)
                 (A) (A) (A) (A) (A) (A) (A) (A) (A) (A) (A) (A)
                 (A) (A) (A) (A) (A) (A) (A) (A) (A) (A) (A) (A)
                 (A) (A) (A) (A) (A) (A) (A) (A) (A) (A) (A) (A)
                 (A) (A) (A) (A) (A) (A) (A) (A) (A) (A) (A) (A)
                 (A) (A) (A) (A) (A) (A) (A) (A) (A) (A) (A) (A)
                 (A) (A) (A) (A) (A) (A) (A) (A) (A) (A) (A) (A)
                 (A) (A) (A) (A) (A) (A) (A) (A) (A) (A) (A) (A)
                 (A) (A) (A) (A) (A) (A) (A) (A) (A) (A) (A) (A)
                 (A) (A) (A) (A) (A) (A) (A) (A) (A) (A) (A) (A)
                 (A) (A) (A) (A) (A) (A) (A) (A) (A) (A) (A) (A)
                 (A) (A) (A) (A) (A) (A) (A) (A) (A) (A) (A) (A)
                 (A) (A) (A) (A) (A) (A) (A) (A) (A) (A) (A) (A)
                 (A) (A) (A) (A) (A) (A) (A) (A) (A) (A) (A) (A)
                 (A) (A) (A) (A) (A) (A) (A) (A) (A) (A) (A) (A)
                 (A) (A) (A) (A) (A) (A) (A) (A) (A) (A) (A) (A)
                 (A) (A) (A) (A) (A) (A) (A) (A) (A)
 The electronic state is 1-A.
 Alpha  occ. eigenvalues --  -89.03934 -89.00395 -88.96290 -19.22962 -19.16724
 Alpha  occ. eigenvalues --  -14.48227 -14.45810 -14.44056 -14.39177 -10.38255
 Alpha  occ. eigenvalues --  -10.38037 -10.33653 -10.33009 -10.32815 -10.32007
 Alpha  occ. eigenvalues --  -10.30608 -10.29953 -10.29524 -10.29231 -10.28877
 Alpha  occ. eigenvalues --  -10.28281 -10.28154 -10.28017 -10.27951 -10.27358
 Alpha  occ. eigenvalues --  -10.27237 -10.25985  -8.12369  -8.09205  -8.05221
 Alpha  occ. eigenvalues --   -6.08883  -6.08269  -6.08084  -6.05620  -6.05186
 Alpha  occ. eigenvalues --   -6.04877  -6.01630  -6.01243  -6.00844  -1.18123
 Alpha  occ. eigenvalues --   -1.13904  -1.10358  -1.09736  -1.00950  -1.00211
 Alpha  occ. eigenvalues --   -1.00114  -0.98503  -0.96652  -0.91896  -0.88219
 Alpha  occ. eigenvalues --   -0.87545  -0.86432  -0.85466  -0.83968  -0.80674
 Alpha  occ. eigenvalues --   -0.76361  -0.74930  -0.73286  -0.72855  -0.69717
 Alpha  occ. eigenvalues --   -0.69162  -0.68411  -0.66147  -0.65184  -0.63665
 Alpha  occ. eigenvalues --   -0.62489  -0.61988  -0.59602  -0.59248  -0.56994
 Alpha  occ. eigenvalues --   -0.55693  -0.54784  -0.54045  -0.53057  -0.52822
 Alpha  occ. eigenvalues --   -0.52452  -0.52397  -0.51591  -0.50781  -0.50358
 Alpha  occ. eigenvalues --   -0.49041  -0.48283  -0.46905  -0.46473  -0.46041
 Alpha  occ. eigenvalues --   -0.45219  -0.45178  -0.44816  -0.44081  -0.43843
 Alpha  occ. eigenvalues --   -0.43497  -0.42855  -0.41800  -0.41326  -0.40996
 Alpha  occ. eigenvalues --   -0.39585  -0.38702  -0.37273  -0.35464  -0.34453
 Alpha  occ. eigenvalues --   -0.34183  -0.33392  -0.32916  -0.30245  -0.23459
 Alpha virt. eigenvalues --   -0.09594  -0.05405   0.00152   0.00387   0.00699
 Alpha virt. eigenvalues --    0.02810   0.03362   0.04953   0.06250   0.06580
 Alpha virt. eigenvalues --    0.07231   0.07684   0.07790   0.08284   0.08685
 Alpha virt. eigenvalues --    0.09967   0.10010   0.10914   0.11436   0.12407
 Alpha virt. eigenvalues --    0.13571   0.14258   0.15198   0.15642   0.16318
 Alpha virt. eigenvalues --    0.16997   0.17534   0.18726   0.19128   0.19345
 Alpha virt. eigenvalues --    0.19966   0.21224   0.21587   0.21932   0.23482
 Alpha virt. eigenvalues --    0.24508   0.25001   0.25244   0.26523   0.27796
 Alpha virt. eigenvalues --    0.28395   0.29291   0.29445   0.30486   0.31261
 Alpha virt. eigenvalues --    0.32177   0.33168   0.33816   0.34144   0.35645
 Alpha virt. eigenvalues --    0.36892   0.37478   0.37838   0.38665   0.39321
 Alpha virt. eigenvalues --    0.40196   0.40606   0.40853   0.41409   0.41912
 Alpha virt. eigenvalues --    0.42287   0.43064   0.43145   0.43691   0.44196
 Alpha virt. eigenvalues --    0.44681   0.44902   0.45337   0.46003   0.46160
 Alpha virt. eigenvalues --    0.46375   0.46925   0.47189   0.47305   0.47915
 Alpha virt. eigenvalues --    0.48096   0.48235   0.48665   0.49915   0.50883
 Alpha virt. eigenvalues --    0.51186   0.51929   0.52384   0.53403   0.53545
 Alpha virt. eigenvalues --    0.53848   0.54851   0.55360   0.56043   0.56739
 Alpha virt. eigenvalues --    0.57441   0.58021   0.58847   0.59393   0.61200
 Alpha virt. eigenvalues --    0.61472   0.61948   0.62366   0.62877   0.63435
 Alpha virt. eigenvalues --    0.63930   0.64094   0.64563   0.64744   0.65706
 Alpha virt. eigenvalues --    0.66141   0.66602   0.66843   0.66972   0.67615
 Alpha virt. eigenvalues --    0.69063   0.69952   0.70278   0.70589   0.70933
 Alpha virt. eigenvalues --    0.71660   0.73038   0.73571   0.73870   0.75154
 Alpha virt. eigenvalues --    0.75489   0.76184   0.76581   0.78028   0.78303
 Alpha virt. eigenvalues --    0.79264   0.79779   0.80854   0.81625   0.81930
 Alpha virt. eigenvalues --    0.82897   0.83149   0.83428   0.83522   0.84050
 Alpha virt. eigenvalues --    0.84556   0.85908   0.86331   0.87114   0.87655
 Alpha virt. eigenvalues --    0.88069   0.88756   0.89172   0.89640   0.90255
 Alpha virt. eigenvalues --    0.91845   0.92390   0.92834   0.93189   0.94100
 Alpha virt. eigenvalues --    0.94638   0.95413   0.96495   0.98190   0.99136
 Alpha virt. eigenvalues --    0.99345   1.00471   1.00682   1.00783   1.01197
 Alpha virt. eigenvalues --    1.02542   1.02919   1.03187   1.04357   1.04794
 Alpha virt. eigenvalues --    1.05265   1.06053   1.06511   1.07439   1.08924
 Alpha virt. eigenvalues --    1.09797   1.10083   1.11159   1.11345   1.11805
 Alpha virt. eigenvalues --    1.11888   1.12763   1.13423   1.14731   1.15151
 Alpha virt. eigenvalues --    1.16411   1.16768   1.17870   1.18165   1.19340
 Alpha virt. eigenvalues --    1.19868   1.20535   1.26717   1.27931   1.30022
 Alpha virt. eigenvalues --    1.30315   1.31410   1.32858   1.34240   1.35198
 Alpha virt. eigenvalues --    1.35446   1.35829   1.36210   1.37792   1.38480
 Alpha virt. eigenvalues --    1.39935   1.41702   1.42996   1.45848   1.46418
 Alpha virt. eigenvalues --    1.47898   1.47944   1.48056   1.49276   1.50455
 Alpha virt. eigenvalues --    1.50855   1.52265   1.52892   1.54674   1.55063
 Alpha virt. eigenvalues --    1.56415   1.58194   1.58391   1.58774   1.59133
 Alpha virt. eigenvalues --    1.59623   1.60308   1.60560   1.61859   1.62405
 Alpha virt. eigenvalues --    1.62772   1.64474   1.64550   1.65937   1.66401
 Alpha virt. eigenvalues --    1.66485   1.68158   1.69334   1.70700   1.71679
 Alpha virt. eigenvalues --    1.73534   1.73870   1.74283   1.74636   1.76912
 Alpha virt. eigenvalues --    1.78378   1.78624   1.79434   1.80022   1.81444
 Alpha virt. eigenvalues --    1.81809   1.82007   1.83741   1.84674   1.84956
 Alpha virt. eigenvalues --    1.85930   1.87055   1.87217   1.87419   1.89370
 Alpha virt. eigenvalues --    1.90485   1.90747   1.91991   1.93266   1.94543
 Alpha virt. eigenvalues --    1.95084   1.95335   1.95521   1.96029   1.96996
 Alpha virt. eigenvalues --    1.98441   1.99702   1.99741   2.00304   2.00820
 Alpha virt. eigenvalues --    2.01478   2.04490   2.05708   2.07456   2.07501
 Alpha virt. eigenvalues --    2.08232   2.09370   2.10117   2.11975   2.13818
 Alpha virt. eigenvalues --    2.14978   2.15418   2.15584   2.15660   2.18055
 Alpha virt. eigenvalues --    2.18296   2.20142   2.22084   2.22614   2.24028
 Alpha virt. eigenvalues --    2.25348   2.27746   2.30611   2.31063   2.32448
 Alpha virt. eigenvalues --    2.33335   2.33608   2.35344   2.36074   2.38985
 Alpha virt. eigenvalues --    2.40678   2.42640   2.43812   2.45758   2.47897
 Alpha virt. eigenvalues --    2.49066   2.49588   2.50633   2.51144   2.53130
 Alpha virt. eigenvalues --    2.53507   2.54622   2.56460   2.59630   2.60190
 Alpha virt. eigenvalues --    2.62137   2.62541   2.63622   2.63846   2.64016
 Alpha virt. eigenvalues --    2.64910   2.66494   2.66911   2.68393   2.69305
 Alpha virt. eigenvalues --    2.69793   2.70770   2.71195   2.71688   2.72806
 Alpha virt. eigenvalues --    2.73328   2.74513   2.74654   2.75692   2.76010
 Alpha virt. eigenvalues --    2.76950   2.77174   2.79031   2.79860   2.84072
 Alpha virt. eigenvalues --    2.84168   2.84609   2.85271   2.87051   2.89099
 Alpha virt. eigenvalues --    2.89504   2.91380   2.94243   2.95372   2.95704
 Alpha virt. eigenvalues --    2.96544   2.97445   2.97957   2.98129   2.98452
 Alpha virt. eigenvalues --    3.01088   3.01975   3.02134   3.05554   3.06284
 Alpha virt. eigenvalues --    3.06528   3.08982   3.10017   3.13262   3.15235
 Alpha virt. eigenvalues --    3.17891   3.18485   3.21556   3.22032   3.25361
 Alpha virt. eigenvalues --    3.25820   3.25988   3.28796   3.29160   3.31295
 Alpha virt. eigenvalues --    3.36025   3.37034   3.37522   3.41339   3.42559
 Alpha virt. eigenvalues --    3.43684   3.44707   3.47120   3.50366   3.51686
 Alpha virt. eigenvalues --    3.53013   3.57022   3.58493   3.62657   3.65561
 Alpha virt. eigenvalues --    3.68684   3.69695   3.76235   3.76881   3.81008
 Alpha virt. eigenvalues --    3.82424   3.84365   3.90930   3.92781   3.94380
 Alpha virt. eigenvalues --    3.94500   4.01049   4.01183   4.01249   4.03364
 Alpha virt. eigenvalues --    4.09001   4.11030   4.13252   4.15180   4.18713
 Alpha virt. eigenvalues --    4.20160   4.25637   4.41811   4.53035   4.62196
 Alpha virt. eigenvalues --    4.74058   4.79024   4.86577   4.86581   4.88389
 Alpha virt. eigenvalues --    4.98788   5.11434   5.21191   5.37363   5.64183
 Alpha virt. eigenvalues --    5.88784   7.80407   7.84177   7.88110  17.17258
 Alpha virt. eigenvalues --   17.22124  17.26460  17.32567  17.35946  17.49759
 Alpha virt. eigenvalues --   17.51685  17.54459  17.58476  23.48970  23.54830
 Alpha virt. eigenvalues --   23.63960  23.73585  23.83416  23.85528  23.92785
 Alpha virt. eigenvalues --   23.96046  23.96696  24.01139  24.03996  24.08932
 Alpha virt. eigenvalues --   24.09535  24.13854  24.15933  24.21444  24.22565
 Alpha virt. eigenvalues --   24.50377  35.51617  35.62223  35.63994  35.87745
 Alpha virt. eigenvalues --   49.90959  50.07424 188.83708 188.88686 188.92876
          Condensed to atoms (all electrons):
               1          2          3          4          5          6
     1  N    6.556560   0.337559  -0.046050   0.003052   0.000573   0.003753
     2  C    0.337559   4.816488   0.495890  -0.047928  -0.035016  -0.039070
     3  C   -0.046050   0.495890   4.877073   0.557898  -0.074165  -0.034056
     4  C    0.003052  -0.047928   0.557898   4.788584   0.529760  -0.058165
     5  C    0.000573  -0.035016  -0.074165   0.529760   4.848518   0.544611
     6  C    0.003753  -0.039070  -0.034056  -0.058165   0.544611   4.777777
     7  C   -0.043892   0.485710  -0.053955  -0.035917  -0.075088   0.540723
     8  C    0.002768  -0.000125   0.000002   0.000000   0.000000  -0.000007
     9  C    0.005074  -0.000316  -0.000017   0.000000   0.000000   0.000002
    10  C   -0.014720   0.005456  -0.000615  -0.000001   0.000001  -0.000005
    11  N   -0.003426  -0.000192  -0.000066   0.000000   0.000000   0.000000
    12  S   -0.000385   0.000082  -0.000008   0.000000   0.000000   0.000000
    13  N   -0.000117   0.000002   0.000000   0.000000   0.000000   0.000000
    14  C    0.326594  -0.069990   0.007742  -0.000187   0.000014   0.000408
    15  S   -0.045549  -0.003568   0.000024   0.000050  -0.000153   0.001683
    16  O    0.000000   0.000000   0.000000   0.000000   0.000000   0.000000
    17  C    0.000000   0.000000   0.000000   0.000000   0.000000   0.000000
    18  C    0.000000   0.000000   0.000000   0.000000   0.000000   0.000000
    19  C    0.000000   0.000000   0.000000   0.000000   0.000000   0.000000
    20  N    0.000000   0.000000   0.000000   0.000000   0.000000   0.000000
    21  C    0.000000   0.000000   0.000000   0.000000   0.000000   0.000000
    22  C    0.000000   0.000000   0.000000   0.000000   0.000000   0.000000
    23  C    0.000000   0.000000   0.000000   0.000000   0.000000   0.000000
    24  C    0.000000   0.000000   0.000000   0.000000   0.000000   0.000000
    25  C   -0.000062  -0.000007   0.000000   0.000000   0.000000   0.000000
    26  S   -0.000001   0.000011   0.000000   0.000000   0.000000   0.000000
    27  O    0.000000   0.000000   0.000000   0.000000   0.000000   0.000000
    28  H    0.391233  -0.039822  -0.002929   0.000438  -0.000005  -0.000211
    29  H   -0.005276  -0.056388   0.411619  -0.018168   0.006686  -0.000497
    30  H   -0.000169   0.007944  -0.037387   0.416842  -0.038219   0.006645
    31  H    0.000010  -0.000839   0.007808  -0.040551   0.419303  -0.039243
    32  H   -0.000170   0.007398  -0.000171   0.006620  -0.037814   0.416202
    33  H   -0.005310  -0.052205   0.003647  -0.000379   0.006084  -0.012738
    34  H    0.000000   0.000000   0.000000   0.000000   0.000000   0.000000
    35  H    0.000000   0.000000   0.000000   0.000000   0.000000   0.000000
    36  H    0.000000   0.000000   0.000000   0.000000   0.000000   0.000000
    37  H    0.000000   0.000000   0.000000   0.000000   0.000000   0.000000
               7          8          9         10         11         12
     1  N   -0.043892   0.002768   0.005074  -0.014720  -0.003426  -0.000385
     2  C    0.485710  -0.000125  -0.000316   0.005456  -0.000192   0.000082
     3  C   -0.053955   0.000002  -0.000017  -0.000615  -0.000066  -0.000008
     4  C   -0.035917   0.000000   0.000000  -0.000001   0.000000   0.000000
     5  C   -0.075088   0.000000   0.000000   0.000001   0.000000   0.000000
     6  C    0.540723  -0.000007   0.000002  -0.000005   0.000000   0.000000
     7  C    4.916066   0.000361   0.000009   0.000935  -0.000004  -0.000001
     8  C    0.000361   5.744170   0.303194  -0.046238   0.015252   0.014705
     9  C    0.000009   0.303194   4.926630   0.392777  -0.135370  -0.156638
    10  C    0.000935  -0.046238   0.392777   5.165226   0.520535  -0.182932
    11  N   -0.000004   0.015252  -0.135370   0.520535   6.843853   0.337295
    12  S   -0.000001   0.014705  -0.156638  -0.182932   0.337295  15.065504
    13  N    0.000000  -0.080545   0.544248  -0.141288  -0.058869   0.326734
    14  C    0.001940  -0.090306  -0.040944   0.293072  -0.071288   0.014676
    15  S   -0.006163   0.284804  -0.082580  -0.096237   0.005479   0.001548
    16  O    0.000000   0.000000   0.000000   0.000000   0.000000   0.000000
    17  C    0.000000   0.000000   0.000000   0.000000   0.000000   0.000000
    18  C    0.000000   0.000005   0.000000   0.000000   0.000000   0.000000
    19  C    0.000000  -0.000001   0.000000   0.000000   0.000000   0.000000
    20  N    0.000000   0.000000   0.000000   0.000000   0.000000   0.000000
    21  C    0.000000  -0.000654   0.000002   0.000000   0.000000   0.000000
    22  C    0.000000   0.001856  -0.000232   0.000013   0.000000  -0.000001
    23  C    0.000000   0.012931  -0.000168  -0.000039   0.000000   0.000002
    24  C    0.000000  -0.045719  -0.017514   0.000327  -0.000002   0.000139
    25  C    0.000008   0.326808   0.014193   0.017634  -0.000407  -0.002108
    26  S   -0.000064  -0.078116   0.006058  -0.000146  -0.000008   0.000074
    27  O    0.000000   0.000000   0.000000   0.000000   0.000000   0.000000
    28  H    0.003824  -0.000231   0.003118  -0.007332   0.015677  -0.000719
    29  H    0.005892  -0.000002  -0.000007  -0.000082  -0.000105  -0.000001
    30  H   -0.000505   0.000000   0.000000   0.000000   0.000000   0.000000
    31  H    0.008350   0.000000   0.000000   0.000000   0.000000   0.000000
    32  H   -0.035450   0.000000   0.000000  -0.000001   0.000000   0.000000
    33  H    0.399199  -0.000770  -0.000169   0.000568  -0.000004  -0.000001
    34  H    0.000000   0.000000   0.000000   0.000000   0.000000   0.000000
    35  H    0.000000   0.000023   0.000001   0.000000   0.000000   0.000000
    36  H    0.000000  -0.000018  -0.000034  -0.000001   0.000000  -0.000002
    37  H    0.000000  -0.023654   0.006246   0.001723   0.000056  -0.000079
              13         14         15         16         17         18
     1  N   -0.000117   0.326594  -0.045549   0.000000   0.000000   0.000000
     2  C    0.000002  -0.069990  -0.003568   0.000000   0.000000   0.000000
     3  C    0.000000   0.007742   0.000024   0.000000   0.000000   0.000000
     4  C    0.000000  -0.000187   0.000050   0.000000   0.000000   0.000000
     5  C    0.000000   0.000014  -0.000153   0.000000   0.000000   0.000000
     6  C    0.000000   0.000408   0.001683   0.000000   0.000000   0.000000
     7  C    0.000000   0.001940  -0.006163   0.000000   0.000000   0.000000
     8  C   -0.080545  -0.090306   0.284804   0.000000   0.000000   0.000005
     9  C    0.544248  -0.040944  -0.082580   0.000000   0.000000   0.000000
    10  C   -0.141288   0.293072  -0.096237   0.000000   0.000000   0.000000
    11  N   -0.058869  -0.071288   0.005479   0.000000   0.000000   0.000000
    12  S    0.326734   0.014676   0.001548   0.000000   0.000000   0.000000
    13  N    6.871676   0.016525   0.007140   0.000000   0.000000   0.000000
    14  C    0.016525   5.265741   0.351874   0.000000   0.000000   0.000000
    15  S    0.007140   0.351874  15.211403   0.000000   0.000000   0.000004
    16  O    0.000000   0.000000   0.000000   7.765753   0.402583  -0.100391
    17  C    0.000000   0.000000   0.000000   0.402583   4.379842   0.138758
    18  C    0.000000   0.000000   0.000004  -0.100391   0.138758   6.104898
    19  C    0.000000   0.000000   0.000000  -0.021453  -0.063451   0.070650
    20  N    0.000000   0.000000   0.000000  -0.002196  -0.002023  -0.129574
    21  C    0.000000   0.000000   0.000148   0.010165  -0.004744   0.432228
    22  C    0.000001  -0.000011  -0.002486  -0.000007   0.014766  -0.090078
    23  C   -0.000107   0.000011  -0.000079   0.000011   0.000227  -0.020005
    24  C   -0.007361  -0.000015   0.005680   0.000000  -0.000011   0.000138
    25  C   -0.005629   0.000218  -0.080507   0.000000   0.000011  -0.000255
    26  S   -0.000090  -0.001443   0.015322  -0.000013  -0.000556   0.009934
    27  O    0.000000   0.000000   0.000000  -0.072621   0.731489  -0.148081
    28  H    0.000059  -0.049598   0.002221   0.000000   0.000000   0.000000
    29  H    0.000000   0.000353  -0.000108   0.000000   0.000000   0.000000
    30  H    0.000000   0.000011   0.000000   0.000000   0.000000   0.000000
    31  H    0.000000  -0.000001   0.000002   0.000000   0.000000   0.000000
    32  H    0.000000  -0.000012  -0.000035   0.000000   0.000000   0.000000
    33  H    0.000001   0.000494   0.005710   0.000000   0.000000   0.000000
    34  H    0.000000   0.000000   0.000000   0.319344  -0.031693   0.005002
    35  H    0.000000   0.000000  -0.000019   0.001506  -0.010008  -0.048462
    36  H   -0.000027   0.000000  -0.000002   0.000004   0.000149   0.005239
    37  H    0.016416  -0.000103  -0.000579   0.000000   0.000000  -0.000006
              19         20         21         22         23         24
     1  N    0.000000   0.000000   0.000000   0.000000   0.000000   0.000000
     2  C    0.000000   0.000000   0.000000   0.000000   0.000000   0.000000
     3  C    0.000000   0.000000   0.000000   0.000000   0.000000   0.000000
     4  C    0.000000   0.000000   0.000000   0.000000   0.000000   0.000000
     5  C    0.000000   0.000000   0.000000   0.000000   0.000000   0.000000
     6  C    0.000000   0.000000   0.000000   0.000000   0.000000   0.000000
     7  C    0.000000   0.000000   0.000000   0.000000   0.000000   0.000000
     8  C   -0.000001   0.000000  -0.000654   0.001856   0.012931  -0.045719
     9  C    0.000000   0.000000   0.000002  -0.000232  -0.000168  -0.017514
    10  C    0.000000   0.000000   0.000000   0.000013  -0.000039   0.000327
    11  N    0.000000   0.000000   0.000000   0.000000   0.000000  -0.000002
    12  S    0.000000   0.000000   0.000000  -0.000001   0.000002   0.000139
    13  N    0.000000   0.000000   0.000000   0.000001  -0.000107  -0.007361
    14  C    0.000000   0.000000   0.000000  -0.000011   0.000011  -0.000015
    15  S    0.000000   0.000000   0.000148  -0.002486  -0.000079   0.005680
    16  O   -0.021453  -0.002196   0.010165  -0.000007   0.000011   0.000000
    17  C   -0.063451  -0.002023  -0.004744   0.014766   0.000227  -0.000011
    18  C    0.070650  -0.129574   0.432228  -0.090078  -0.020005   0.000138
    19  C    5.058317   1.085059  -0.077497  -0.029793  -0.006524  -0.000199
    20  N    1.085059   6.250477   0.002203  -0.001860  -0.003339  -0.000009
    21  C   -0.077497   0.002203   4.863086   0.358447  -0.023778   0.009743
    22  C   -0.029793  -0.001860   0.358447   5.590536   0.420885  -0.064847
    23  C   -0.006524  -0.003339  -0.023778   0.420885   4.806433   0.567122
    24  C   -0.000199  -0.000009   0.009743  -0.064847   0.567122   4.844370
    25  C   -0.000068  -0.000006  -0.004453  -0.107353  -0.038055   0.415428
    26  S   -0.000304  -0.000024  -0.039734   0.276881  -0.100471  -0.077210
    27  O    0.003074  -0.000014   0.013565   0.003971   0.000008   0.000000
    28  H    0.000000   0.000000   0.000000   0.000000   0.000000   0.000000
    29  H    0.000000   0.000000   0.000000   0.000000   0.000000   0.000000
    30  H    0.000000   0.000000   0.000000   0.000000   0.000000   0.000000
    31  H    0.000000   0.000000   0.000000   0.000000   0.000000   0.000000
    32  H    0.000000   0.000000   0.000000   0.000000   0.000000   0.000000
    33  H    0.000000   0.000000   0.000000   0.000000   0.000000   0.000001
    34  H    0.009188   0.003140  -0.000810  -0.000059   0.000001   0.000000
    35  H    0.007655   0.000016   0.397359  -0.024267   0.006990  -0.000615
    36  H    0.003853   0.006260  -0.009753  -0.045515   0.418163  -0.032432
    37  H   -0.000012  -0.000008   0.000054   0.010262  -0.038950   0.423232
              25         26         27         28         29         30
     1  N   -0.000062  -0.000001   0.000000   0.391233  -0.005276  -0.000169
     2  C   -0.000007   0.000011   0.000000  -0.039822  -0.056388   0.007944
     3  C    0.000000   0.000000   0.000000  -0.002929   0.411619  -0.037387
     4  C    0.000000   0.000000   0.000000   0.000438  -0.018168   0.416842
     5  C    0.000000   0.000000   0.000000  -0.000005   0.006686  -0.038219
     6  C    0.000000   0.000000   0.000000  -0.000211  -0.000497   0.006645
     7  C    0.000008  -0.000064   0.000000   0.003824   0.005892  -0.000505
     8  C    0.326808  -0.078116   0.000000  -0.000231  -0.000002   0.000000
     9  C    0.014193   0.006058   0.000000   0.003118  -0.000007   0.000000
    10  C    0.017634  -0.000146   0.000000  -0.007332  -0.000082   0.000000
    11  N   -0.000407  -0.000008   0.000000   0.015677  -0.000105   0.000000
    12  S   -0.002108   0.000074   0.000000  -0.000719  -0.000001   0.000000
    13  N   -0.005629  -0.000090   0.000000   0.000059   0.000000   0.000000
    14  C    0.000218  -0.001443   0.000000  -0.049598   0.000353   0.000011
    15  S   -0.080507   0.015322   0.000000   0.002221  -0.000108   0.000000
    16  O    0.000000  -0.000013  -0.072621   0.000000   0.000000   0.000000
    17  C    0.000011  -0.000556   0.731489   0.000000   0.000000   0.000000
    18  C   -0.000255   0.009934  -0.148081   0.000000   0.000000   0.000000
    19  C   -0.000068  -0.000304   0.003074   0.000000   0.000000   0.000000
    20  N   -0.000006  -0.000024  -0.000014   0.000000   0.000000   0.000000
    21  C   -0.004453  -0.039734   0.013565   0.000000   0.000000   0.000000
    22  C   -0.107353   0.276881   0.003971   0.000000   0.000000   0.000000
    23  C   -0.038055  -0.100471   0.000008   0.000000   0.000000   0.000000
    24  C    0.415428  -0.077210   0.000000   0.000000   0.000000   0.000000
    25  C    5.334004   0.344171   0.000000   0.000024   0.000000   0.000000
    26  S    0.344171  15.340960  -0.000797  -0.000006   0.000000   0.000000
    27  O    0.000000  -0.000797   7.749437   0.000000   0.000000   0.000000
    28  H    0.000024  -0.000006   0.000000   0.422546   0.003769  -0.000052
    29  H    0.000000   0.000000   0.000000   0.003769   0.549272  -0.007935
    30  H    0.000000   0.000000   0.000000  -0.000052  -0.007935   0.544294
    31  H    0.000000   0.000000   0.000000  -0.000002  -0.000245  -0.006861
    32  H    0.000000  -0.000001   0.000000   0.000021   0.000051  -0.000300
    33  H   -0.000091   0.000131   0.000000  -0.000453  -0.000194   0.000051
    34  H    0.000000   0.000015   0.003504   0.000000   0.000000   0.000000
    35  H    0.000270  -0.006102   0.033865   0.000000   0.000000   0.000000
    36  H    0.009910   0.005714   0.000000   0.000000   0.000000   0.000000
    37  H   -0.037518   0.005920   0.000000   0.000000   0.000000   0.000000
              31         32         33         34         35         36
     1  N    0.000010  -0.000170  -0.005310   0.000000   0.000000   0.000000
     2  C   -0.000839   0.007398  -0.052205   0.000000   0.000000   0.000000
     3  C    0.007808  -0.000171   0.003647   0.000000   0.000000   0.000000
     4  C   -0.040551   0.006620  -0.000379   0.000000   0.000000   0.000000
     5  C    0.419303  -0.037814   0.006084   0.000000   0.000000   0.000000
     6  C   -0.039243   0.416202  -0.012738   0.000000   0.000000   0.000000
     7  C    0.008350  -0.035450   0.399199   0.000000   0.000000   0.000000
     8  C    0.000000   0.000000  -0.000770   0.000000   0.000023  -0.000018
     9  C    0.000000   0.000000  -0.000169   0.000000   0.000001  -0.000034
    10  C    0.000000  -0.000001   0.000568   0.000000   0.000000  -0.000001
    11  N    0.000000   0.000000  -0.000004   0.000000   0.000000   0.000000
    12  S    0.000000   0.000000  -0.000001   0.000000   0.000000  -0.000002
    13  N    0.000000   0.000000   0.000001   0.000000   0.000000  -0.000027
    14  C   -0.000001  -0.000012   0.000494   0.000000   0.000000   0.000000
    15  S    0.000002  -0.000035   0.005710   0.000000  -0.000019  -0.000002
    16  O    0.000000   0.000000   0.000000   0.319344   0.001506   0.000004
    17  C    0.000000   0.000000   0.000000  -0.031693  -0.010008   0.000149
    18  C    0.000000   0.000000   0.000000   0.005002  -0.048462   0.005239
    19  C    0.000000   0.000000   0.000000   0.009188   0.007655   0.003853
    20  N    0.000000   0.000000   0.000000   0.003140   0.000016   0.006260
    21  C    0.000000   0.000000   0.000000  -0.000810   0.397359  -0.009753
    22  C    0.000000   0.000000   0.000000  -0.000059  -0.024267  -0.045515
    23  C    0.000000   0.000000   0.000000   0.000001   0.006990   0.418163
    24  C    0.000000   0.000000   0.000001   0.000000  -0.000615  -0.032432
    25  C    0.000000   0.000000  -0.000091   0.000000   0.000270   0.009910
    26  S    0.000000  -0.000001   0.000131   0.000015  -0.006102   0.005714
    27  O    0.000000   0.000000   0.000000   0.003504   0.033865   0.000000
    28  H   -0.000002   0.000021  -0.000453   0.000000   0.000000   0.000000
    29  H   -0.000245   0.000051  -0.000194   0.000000   0.000000   0.000000
    30  H   -0.006861  -0.000300   0.000051   0.000000   0.000000   0.000000
    31  H    0.545019  -0.006973  -0.000251   0.000000   0.000000   0.000000
    32  H   -0.006973   0.542304  -0.007684   0.000000   0.000000   0.000000
    33  H   -0.000251  -0.007684   0.532961   0.000000   0.000000   0.000000
    34  H    0.000000   0.000000   0.000000   0.437162  -0.000390   0.000012
    35  H    0.000000   0.000000   0.000000  -0.000390   0.501307   0.000087
    36  H    0.000000   0.000000   0.000000   0.000012   0.000087   0.497906
    37  H    0.000000   0.000000   0.000000   0.000000   0.000000  -0.004670
              37
     1  N    0.000000
     2  C    0.000000
     3  C    0.000000
     4  C    0.000000
     5  C    0.000000
     6  C    0.000000
     7  C    0.000000
     8  C   -0.023654
     9  C    0.006246
    10  C    0.001723
    11  N    0.000056
    12  S   -0.000079
    13  N    0.016416
    14  C   -0.000103
    15  S   -0.000579
    16  O    0.000000
    17  C    0.000000
    18  C   -0.000006
    19  C   -0.000012
    20  N   -0.000008
    21  C    0.000054
    22  C    0.010262
    23  C   -0.038950
    24  C    0.423232
    25  C   -0.037518
    26  S    0.005920
    27  O    0.000000
    28  H    0.000000
    29  H    0.000000
    30  H    0.000000
    31  H    0.000000
    32  H    0.000000
    33  H    0.000000
    34  H    0.000000
    35  H    0.000000
    36  H   -0.004670
    37  H    0.509236
 Mulliken charges:
               1
     1  N   -0.462050
     2  C    0.188926
     3  C   -0.112283
     4  C   -0.101947
     5  C   -0.095090
     6  C   -0.107812
     7  C   -0.111979
     8  C   -0.340495
     9  C    0.232437
    10  C    0.091368
    11  N   -0.468405
    12  S    0.582113
    13  N   -0.488770
    14  C    0.044226
    15  S    0.424972
    16  O   -0.302686
    17  C    0.444661
    18  C   -0.230005
    19  C   -0.038495
    20  N   -0.208103
    21  C    0.074424
    22  C   -0.311110
    23  C   -0.001269
    24  C   -0.020247
    25  C   -0.186162
    26  S    0.299895
    27  O   -0.317402
    28  H    0.258431
    29  H    0.111364
    30  H    0.115642
    31  H    0.114475
    32  H    0.116014
    33  H    0.131403
    34  H    0.255584
    35  H    0.140783
    36  H    0.145157
    37  H    0.132433
 Sum of Mulliken charges =   0.00000
 Mulliken charges with hydrogens summed into heavy atoms:
               1
     1  N   -0.203618
     2  C    0.188926
     3  C   -0.000919
     4  C    0.013695
     5  C    0.019385
     6  C    0.008202
     7  C    0.019424
     8  C   -0.340495
     9  C    0.232437
    10  C    0.091368
    11  N   -0.468405
    12  S    0.582113
    13  N   -0.488770
    14  C    0.044226
    15  S    0.424972
    16  O   -0.047102
    17  C    0.444661
    18  C   -0.230005
    19  C   -0.038495
    20  N   -0.208103
    21  C    0.215207
    22  C   -0.311110
    23  C    0.143888
    24  C    0.112186
    25  C   -0.186162
    26  S    0.299895
    27  O   -0.317402
 Electronic spatial extent (au):  <R**2>=          18683.9967
 Charge=              0.0000 electrons
 Dipole moment (field-independent basis, Debye):
    X=            -12.8992    Y=              1.1572    Z=             -0.0190  Tot=             12.9511
 Quadrupole moment (field-independent basis, Debye-Ang):
   XX=           -193.7818   YY=           -177.9829   ZZ=           -180.3890
   XY=             18.2935   XZ=              1.8559   YZ=             -1.0664
 Traceless Quadrupole moment (field-independent basis, Debye-Ang):
   XX=             -9.7306   YY=              6.0684   ZZ=              3.6622
   XY=             18.2935   XZ=              1.8559   YZ=             -1.0664
 Octapole moment (field-independent basis, Debye-Ang**2):
  XXX=           -582.1932  YYY=             23.4932  ZZZ=              0.0155  XYY=           -173.2020
  XXY=             54.0445  XXZ=            -17.5649  XZZ=             27.7884  YZZ=              5.4109
  YYZ=              5.1720  XYZ=              1.0186
 Hexadecapole moment (field-independent basis, Debye-Ang**3):
 XXXX=         -21148.0685 YYYY=          -4611.0920 ZZZZ=           -213.9924 XXXY=           1033.9783
 XXXZ=            163.8850 YYYX=            259.1458 YYYZ=            -19.6175 ZZZX=             -1.3048
 ZZZY=              1.8578 XXYY=          -4788.5463 XXZZ=          -3540.4866 YYZZ=           -876.7755
 XXYZ=              0.0925 YYXZ=            -10.7390 ZZXY=           -112.3690
 N-N= 2.574724113039D+03 E-N=-1.046121957264D+04  KE= 2.250854671050D+03
 1\1\GINC-N052\SP\RCAM-B3LYP TD-FC\6-311G(d,p)\C18H10N4O2S3\R2652\11-Se
 p-2021\0\\#N CAM-B3LYP/6-311G(d,p) TD(NStates=10)\\Name\\0,1\N,0,-4.33
 4466,0.091766,-0.012098\C,0,-4.94197,-1.170533,0.004853\C,0,-6.328753,
 -1.213314,-0.218484\C,0,-7.002632,-2.424504,-0.212842\C,0,-6.312191,-3
 .616267,0.013202\C,0,-4.940634,-3.574271,0.240283\C,0,-4.249417,-2.364
 901,0.24074\C,0,-0.474431,0.860577,-0.018027\C,0,-1.218523,2.052229,0.
 003721\C,0,-2.65149,1.845206,0.024011\N,0,-3.38276,2.960053,0.042894\S
 ,0,-2.298314,4.190193,0.04147\N,0,-0.885998,3.353582,0.014083\C,0,-3.0
 36354,0.485715,0.013173\S,0,-1.609346,-0.495226,-0.027785\O,0,8.054517
 ,-1.577076,-0.010016\C,0,6.738194,-1.891467,-0.017132\C,0,5.777462,-0.
 743968,-0.010336\C,0,6.301212,0.571355,0.003465\N,0,6.788499,1.624046,
 0.014797\C,0,4.436397,-1.034883,-0.017817\C,0,3.317712,-0.170759,-0.01
 4335\C,0,3.208502,1.218811,-0.001343\C,0,1.898244,1.693908,-0.001857\C
 ,0,0.932798,0.680079,-0.014568\S,0,1.698955,-0.887135,-0.02769\O,0,6.3
 87007,-3.04296,-0.02836\H,0,-4.973091,0.875945,-0.069114\H,0,-6.870426
 ,-0.290628,-0.400821\H,0,-8.071919,-2.438539,-0.38834\H,0,-6.838887,-4
 .562569,0.01387\H,0,-4.392185,-4.490411,0.425331\H,0,-3.189181,-2.3693
 51,0.446427\H,0,8.185026,-0.618623,-0.00128\H,0,4.237378,-2.103645,-0.
 028132\H,0,4.072089,1.868944,0.008468\H,0,1.626597,2.739637,0.006703\\
 Version=ES64L-G09RevD.01\State=1-A\HF=-2255.6673148\RMSD=3.549e-09\PG=
 C01 [X(C18H10N4O2S3)]\\@


 IF NO USE IS MADE OF THE LABOR OF PAST AGES,
 THE WORLD MUST REMAIN ALWAYS IN THE INFANCY OF KNOWLEDGE.

                          -- CICERO
 Job cpu time:       0 days  2 hours 13 minutes 55.6 seconds.
 File lengths (MBytes):  RWF=    795 Int=      0 D2E=      0 Chk=    115 Scr=      1
 Normal termination of Gaussian 09 at Sat Sep 11 09:36:55 2021.
