 Entering Gaussian System, Link 0=g16
 Input=ES.com
 Output=PBEPBE.out
 Initial command:
 /usr/local/apps/gaussian/g16-c01-avx2//g16/l1.exe "/tmp/r2532.910720.maple/Gau-39043.inp" -scrdir="/tmp/r2532.910720.maple/"
 Entering Link 1 = /usr/local/apps/gaussian/g16-c01-avx2//g16/l1.exe PID=     39044.
  
 Copyright (c) 1988-2019, Gaussian, Inc.  All Rights Reserved.
  
 This is part of the Gaussian(R) 16 program.  It is based on
 the Gaussian(R) 09 system (copyright 2009, Gaussian, Inc.),
 the Gaussian(R) 03 system (copyright 2003, Gaussian, Inc.),
 the Gaussian(R) 98 system (copyright 1998, Gaussian, Inc.),
 the Gaussian(R) 94 system (copyright 1995, Gaussian, Inc.),
 the Gaussian 92(TM) system (copyright 1992, Gaussian, Inc.),
 the Gaussian 90(TM) system (copyright 1990, Gaussian, Inc.),
 the Gaussian 88(TM) system (copyright 1988, Gaussian, Inc.),
 the Gaussian 86(TM) system (copyright 1986, Carnegie Mellon
 University), and the Gaussian 82(TM) system (copyright 1983,
 Carnegie Mellon University). Gaussian is a federally registered
 trademark of Gaussian, Inc.
  
 This software contains proprietary and confidential information,
 including trade secrets, belonging to Gaussian, Inc.
  
 This software is provided under written license and may be
 used, copied, transmitted, or stored only in accord with that
 written license.
  
 The following legend is applicable only to US Government
 contracts under FAR:
  
                    RESTRICTED RIGHTS LEGEND
  
 Use, reproduction and disclosure by the US Government is
 subject to restrictions as set forth in subparagraphs (a)
 and (c) of the Commercial Computer Software - Restricted
 Rights clause in FAR 52.227-19.
  
 Gaussian, Inc.
 340 Quinnipiac St., Bldg. 40, Wallingford CT 06492
  
  
 ---------------------------------------------------------------
 Warning -- This program may not be used in any manner that
 competes with the business of Gaussian, Inc. or will provide
 assistance to any competitor of Gaussian, Inc.  The licensee
 of this program is prohibited from giving any competitor of
 Gaussian, Inc. access to this program.  By using this program,
 the user acknowledges that Gaussian, Inc. is engaged in the
 business of creating and licensing software in the field of
 computational chemistry and represents and warrants to the
 licensee that it is not a competitor of Gaussian, Inc. and that
 it will not use this program in any manner prohibited above.
 ---------------------------------------------------------------
  

 Cite this work as:
 Gaussian 16, Revision C.01,
 M. J. Frisch, G. W. Trucks, H. B. Schlegel, G. E. Scuseria, 
 M. A. Robb, J. R. Cheeseman, G. Scalmani, V. Barone, 
 G. A. Petersson, H. Nakatsuji, X. Li, M. Caricato, A. V. Marenich, 
 J. Bloino, B. G. Janesko, R. Gomperts, B. Mennucci, H. P. Hratchian, 
 J. V. Ortiz, A. F. Izmaylov, J. L. Sonnenberg, D. Williams-Young, 
 F. Ding, F. Lipparini, F. Egidi, J. Goings, B. Peng, A. Petrone, 
 T. Henderson, D. Ranasinghe, V. G. Zakrzewski, J. Gao, N. Rega, 
 G. Zheng, W. Liang, M. Hada, M. Ehara, K. Toyota, R. Fukuda, 
 J. Hasegawa, M. Ishida, T. Nakajima, Y. Honda, O. Kitao, H. Nakai, 
 T. Vreven, K. Throssell, J. A. Montgomery, Jr., J. E. Peralta, 
 F. Ogliaro, M. J. Bearpark, J. J. Heyd, E. N. Brothers, K. N. Kudin, 
 V. N. Staroverov, T. A. Keith, R. Kobayashi, J. Normand, 
 K. Raghavachari, A. P. Rendell, J. C. Burant, S. S. Iyengar, 
 J. Tomasi, M. Cossi, J. M. Millam, M. Klene, C. Adamo, R. Cammi, 
 J. W. Ochterski, R. L. Martin, K. Morokuma, O. Farkas, 
 J. B. Foresman, and D. J. Fox, Gaussian, Inc., Wallingford CT, 2019.
 
 ******************************************
 Gaussian 16:  ES64L-G16RevC.01  3-Jul-2019
                27-Jul-2021 
 ******************************************
 %mem=8gb
 ------------------------------------
 #N TD(NStates=10) PBEPBE/6-311G(d,p)
 ------------------------------------
 1/38=1,172=1/1;
 2/12=2,17=6,18=5,40=1/2;
 3/5=4,6=6,7=101,11=9,25=1,30=1,74=1009/1,2,3,8;
 4//1;
 5/5=2,38=5/2;
 8/6=1,10=2,108=10/1;
 9/41=10,42=1,70=2/14;
 6/7=2,8=2,9=2,10=2/1;
 99/5=1,9=1/99;
 ---------
 C25H20ON4
 ---------
 Symbolic Z-matrix:
 Charge =  0 Multiplicity = 1
 6                    -4.63103   5.36114  -2.41197 
 6                     0.95222   5.7407   -1.47375 
 6                    -0.14643  -0.44537   0.14703 
 6                    -0.94709   0.69217  -0.06834 
 6                    -2.35902   0.42957  -0.01601 
 6                    -2.67918  -0.90898   0.26019 
 1                    -5.28866  -4.6171    1.15698 
 1                     0.86051   7.7998   -0.84788 
 6                    -2.78497   2.62956  -0.53128 
 6                    -1.35381   2.91407  -0.48195 
 6                     7.82472  -5.7761   -3.62397 
 6                     8.82059   3.04506   3.91574 
 6                    -3.95817  -1.57433   0.38948 
 6                    -5.17656  -0.89074   0.15151 
 1                    -7.29137  -0.958     0.07256 
 6                    -4.04353  -2.93828   0.75394 
 1                    -5.14123   0.14972  -0.13512 
 6                     1.29755  -0.5986    0.15035 
 6                     2.16246   0.50572   0.30689 
 6                     3.53679   0.35163   0.31772 
 6                     4.13247  -0.91835   0.17165 
 6                     3.27353  -2.02732   0.01813 
 6                     1.90153  -1.86533   0.00625 
 1                     1.73978   1.49481   0.40786 
 1                     4.16424   1.22527   0.43501 
 6                    -5.26243  -3.57082   0.8727 
 1                     3.69157  -3.01869  -0.09437 
 1                     1.2846   -2.74706  -0.12716 
 6                     0.40428   6.81886  -0.77922 
 6                    -0.73109   6.62844   0.00725 
 6                    -6.47915  -2.88962   0.63883 
 1                    -6.58801   6.14375  -1.97153 
 6                    -6.39493  -1.52744   0.27171 
 6                     6.37174  -0.11304   0.80588 
 6                     7.42482   0.47413   0.09152 
 6                     8.27176   1.38396   0.70383 
 6                     8.07876   1.74266   2.0451 
 6                     7.02709   1.16534   2.76374 
 6                     6.19113   0.23705   2.14427 
 1                     7.57915   0.20931  -0.94769 
 1                     9.08849   1.83969   0.157 
 6                    -7.69507  -3.64739   0.79041 
 1                     6.85705   1.41503   3.80207 
 1                     5.3876   -0.21657   2.7123 
 6                     6.14109  -2.19024  -0.47003 
 6                     7.05258  -2.9933    0.2289 
 6                     7.68093  -4.05723  -0.3984 
 6                     7.40267  -4.3563   -1.73934 
 6                     6.49101  -3.56265  -2.4428 
 6                     5.87783  -2.48285  -1.80861 
 1                     7.26951  -2.77601   1.26796 
 1                     8.38737  -4.68045   0.13664 
 1                     6.26167  -3.7615   -3.48071 
 1                     5.18468  -1.8635   -2.36542 
 6                    -9.01514  -3.30394   0.69587 
 1                    -2.71793   4.41289  -2.61112 
 1                    -5.14878   3.07404   0.66375 
 1                    -7.50632  -4.68324   1.0592 
 1                    -4.48742   5.9872   -3.28506 
 1                    -6.91396   4.68199   0.00889 
 6                    -1.32618   5.37251   0.08809 
 1                     0.79802   3.63936  -1.91123 
 1                     1.8356    5.8805   -2.08642 
 6                    -0.78384   4.28352  -0.60783 
 6                    -10.1218  -4.27579   0.95126 
 1                    -1.15485   7.45855   0.56074 
 1                    -2.2051    5.23718   0.70624 
 16                   -1.1866   -1.80189   0.44584 
 7                    -3.24773   1.42571  -0.27255 
 7                    -0.48364   1.94672  -0.28825 
 7                     5.51946  -1.07453   0.17552 
 6                     0.36861   4.48081  -1.38134 
 6                    -3.80555   3.6432   -0.91421 
 6                    -3.62976   4.4729   -2.02988 
 6                    -5.00493   3.72102  -0.19291 
 6                    -5.81324   5.44496  -1.67749 
 6                    -5.99673   4.62306  -0.56583 
 1                     8.44632  -6.64764  -3.81905 
 1                     6.77423  -6.03469  -3.78972 
 1                     8.11372  -4.96544  -4.30007 
 1                     9.61696   3.76386   4.0978 
 1                     7.85226   3.52257   4.09503 
 1                     8.93938   2.19247   4.59156 
 8                     8.06422  -5.42621  -2.26111 
 8                     8.95974   2.64913   2.55153 
 1                    -3.14326  -3.50806   0.95086 
 8                    -11.24029  -3.92595   1.23794 
 8                    -9.83441  -5.59508   0.86736 
 6                    -9.47804  -1.97966   0.45083 
 7                    -9.8703   -0.91128   0.24538 
 1                    -8.98977  -5.75154   0.42687 
 
 Stoichiometry    C48H34N4O4S
 Framework group  C1[X(C48H34N4O4S)]
 Deg. of freedom   267
 Full point group                 C1      NOp   1
 Largest Abelian subgroup         C1      NOp   1
 Largest concise Abelian subgroup C1      NOp   1
                         Standard orientation:                         
 ---------------------------------------------------------------------
 Center     Atomic      Atomic             Coordinates (Angstroms)
 Number     Number       Type             X           Y           Z
 ---------------------------------------------------------------------
      1          6           0       -4.631031    5.361136   -2.411965
      2          6           0        0.952221    5.740697   -1.473753
      3          6           0       -0.146433   -0.445370    0.147030
      4          6           0       -0.947089    0.692174   -0.068337
      5          6           0       -2.359020    0.429567   -0.016011
      6          6           0       -2.679179   -0.908980    0.260187
      7          1           0       -5.288656   -4.617098    1.156981
      8          1           0        0.860507    7.799804   -0.847875
      9          6           0       -2.784972    2.629555   -0.531279
     10          6           0       -1.353809    2.914069   -0.481952
     11          6           0        7.824722   -5.776095   -3.623969
     12          6           0        8.820585    3.045063    3.915736
     13          6           0       -3.958167   -1.574327    0.389483
     14          6           0       -5.176556   -0.890741    0.151509
     15          1           0       -7.291372   -0.958003    0.072563
     16          6           0       -4.043530   -2.938276    0.753936
     17          1           0       -5.141231    0.149716   -0.135119
     18          6           0        1.297547   -0.598599    0.150351
     19          6           0        2.162457    0.505724    0.306889
     20          6           0        3.536785    0.351629    0.317724
     21          6           0        4.132468   -0.918346    0.171651
     22          6           0        3.273532   -2.027315    0.018133
     23          6           0        1.901525   -1.865332    0.006245
     24          1           0        1.739779    1.494807    0.407860
     25          1           0        4.164243    1.225272    0.435011
     26          6           0       -5.262430   -3.570822    0.872697
     27          1           0        3.691571   -3.018690   -0.094374
     28          1           0        1.284605   -2.747058   -0.127164
     29          6           0        0.404280    6.818861   -0.779223
     30          6           0       -0.731085    6.628444    0.007254
     31          6           0       -6.479154   -2.889616    0.638832
     32          1           0       -6.588008    6.143747   -1.971527
     33          6           0       -6.394931   -1.527437    0.271705
     34          6           0        6.371743   -0.113043    0.805884
     35          6           0        7.424824    0.474129    0.091519
     36          6           0        8.271763    1.383955    0.703834
     37          6           0        8.078764    1.742664    2.045104
     38          6           0        7.027087    1.165339    2.763738
     39          6           0        6.191132    0.237049    2.144271
     40          1           0        7.579146    0.209308   -0.947690
     41          1           0        9.088486    1.839686    0.156997
     42          6           0       -7.695069   -3.647394    0.790412
     43          1           0        6.857048    1.415032    3.802069
     44          1           0        5.387599   -0.216572    2.712302
     45          6           0        6.141089   -2.190242   -0.470033
     46          6           0        7.052582   -2.993299    0.228903
     47          6           0        7.680930   -4.057226   -0.398404
     48          6           0        7.402670   -4.356297   -1.739342
     49          6           0        6.491011   -3.562645   -2.442798
     50          6           0        5.877831   -2.482852   -1.808608
     51          1           0        7.269510   -2.776009    1.267963
     52          1           0        8.387370   -4.680452    0.136639
     53          1           0        6.261671   -3.761504   -3.480711
     54          1           0        5.184685   -1.863495   -2.365415
     55          6           0       -9.015144   -3.303944    0.695865
     56          1           0       -2.717927    4.412890   -2.611118
     57          1           0       -5.148781    3.074038    0.663746
     58          1           0       -7.506319   -4.683242    1.059202
     59          1           0       -4.487420    5.987204   -3.285059
     60          1           0       -6.913955    4.681992    0.008889
     61          6           0       -1.326181    5.372509    0.088090
     62          1           0        0.798017    3.639362   -1.911234
     63          1           0        1.835597    5.880502   -2.086415
     64          6           0       -0.783844    4.283523   -0.607833
     65          6           0      -10.121801   -4.275787    0.951255
     66          1           0       -1.154853    7.458551    0.560742
     67          1           0       -2.205096    5.237183    0.706238
     68         16           0       -1.186602   -1.801887    0.445836
     69          7           0       -3.247730    1.425711   -0.272546
     70          7           0       -0.483638    1.946718   -0.288249
     71          7           0        5.519459   -1.074533    0.175518
     72          6           0        0.368612    4.480809   -1.381344
     73          6           0       -3.805550    3.643200   -0.914214
     74          6           0       -3.629759    4.472905   -2.029876
     75          6           0       -5.004933    3.721022   -0.192913
     76          6           0       -5.813238    5.444955   -1.677486
     77          6           0       -5.996733    4.623060   -0.565829
     78          1           0        8.446316   -6.647642   -3.819049
     79          1           0        6.774233   -6.034687   -3.789716
     80          1           0        8.113716   -4.965439   -4.300067
     81          1           0        9.616962    3.763855    4.097804
     82          1           0        7.852263    3.522568    4.095030
     83          1           0        8.939376    2.192469    4.591564
     84          8           0        8.064222   -5.426213   -2.261112
     85          8           0        8.959743    2.649126    2.551526
     86          1           0       -3.143257   -3.508059    0.950856
     87          8           0      -11.240290   -3.925952    1.237937
     88          8           0       -9.834414   -5.595084    0.867360
     89          6           0       -9.478038   -1.979660    0.450833
     90          7           0       -9.870299   -0.911276    0.245382
     91          1           0       -8.989770   -5.751540    0.426869
 ---------------------------------------------------------------------
 Rotational constants (GHZ):           0.0501157           0.0180140           0.0143061
 Standard basis: 6-311G(d,p) (5D, 7F)
 There are  1295 symmetry adapted cartesian basis functions of A   symmetry.
 There are  1238 symmetry adapted basis functions of A   symmetry.
  1238 basis functions,  2110 primitive gaussians,  1295 cartesian basis functions
   199 alpha electrons      199 beta electrons
       nuclear repulsion energy      6899.3183239166 Hartrees.
 NAtoms=   91 NActive=   91 NUniq=   91 SFac= 1.00D+00 NAtFMM=   60 NAOKFM=T Big=T
 Integral buffers will be    131072 words long.
 Regular integral format.
 Two-electron integral symmetry is turned on.
 One-electron integrals computed using PRISM.
 NBasis=  1238 RedAO= T EigKep=  1.19D-04  NBF=  1238
 NBsUse=  1238 1.00D-06 EigRej= -1.00D+00 NBFU=  1238
 ExpMin= 7.71D-02 ExpMax= 9.34D+04 ExpMxC= 3.17D+03 IAcc=3 IRadAn=         5 AccDes= 0.00D+00
 Harris functional with IExCor= 1009 and IRadAn=       5 diagonalized for initial guess.
 HarFok:  IExCor= 1009 AccDes= 0.00D+00 IRadAn=         5 IDoV= 1 UseB2=F ITyADJ=14
 ICtDFT=  3500011 ScaDFX=  1.000000  1.000000  1.000000  1.000000
 FoFCou: FMM=F IPFlag=           0 FMFlag=      100000 FMFlg1=        2001
         NFxFlg=           0 DoJE=T BraDBF=F KetDBF=T FulRan=T
         wScrn=  0.000000 ICntrl=       500 IOpCl=  0 I1Cent=   200000004 NGrid=           0
         NMat0=    1 NMatS0=      1 NMatT0=    0 NMatD0=    1 NMtDS0=    0 NMtDT0=    0
 Petite list used in FoFCou.
 Requested convergence on RMS density matrix=1.00D-08 within 128 cycles.
 Requested convergence on MAX density matrix=1.00D-06.
 Requested convergence on             energy=1.00D-06.
 No special actions if energy rises.
 Integral accuracy reduced to 1.0D-05 until final iterations.
 EnCoef did     1 forward-backward iterations
 EnCoef did     3 forward-backward iterations
 Initial convergence to 1.0D-05 achieved.  Increase integral accuracy.
 SCF Done:  E(RPBE-PBE) =  -2765.15412673     A.U. after   20 cycles
            NFock= 20  Conv=0.28D-08     -V/T= 2.0026
 DoSCS=F DFT=T ScalE2(SS,OS)=  1.000000  1.000000
 ExpMin= 7.71D-02 ExpMax= 9.34D+04 ExpMxC= 3.17D+03 IAcc=3 IRadAn=         5 AccDes= 0.00D+00
 HarFok:  IExCor=  205 AccDes= 0.00D+00 IRadAn=         5 IDoV=-2 UseB2=F ITyADJ=14
 ICtDFT= 12500011 ScaDFX=  1.000000  1.000000  1.000000  1.000000
 GSVD:  LWork=       -4209 too small for GESVD, short by       19520 words or       19520 for optimal perf.
 Range of M.O.s used for correlation:    62  1238
 NBasis=  1238 NAE=   199 NBE=   199 NFC=    61 NFV=     0
 NROrb=   1177 NOA=   138 NOB=   138 NVA=  1039 NVB=  1039

 **** Warning!!: The largest alpha MO coefficient is  0.12106136D+02


 **** Warning!!: The smallest alpha delta epsilon is  0.38854442D-01

 Orbital symmetries:
       Occupied  (A) (A) (A) (A) (A) (A) (A) (A) (A) (A) (A) (A)
                 (A) (A) (A) (A) (A) (A) (A) (A) (A) (A) (A) (A)
                 (A) (A) (A) (A) (A) (A) (A) (A) (A) (A) (A) (A)
                 (A) (A) (A) (A) (A) (A) (A) (A) (A) (A) (A) (A)
                 (A) (A) (A) (A) (A) (A) (A) (A) (A) (A) (A) (A)
                 (A) (A) (A) (A) (A) (A) (A) (A) (A) (A) (A) (A)
                 (A) (A) (A) (A) (A) (A) (A) (A) (A) (A) (A) (A)
                 (A) (A) (A) (A) (A) (A) (A) (A) (A) (A) (A) (A)
                 (A) (A) (A) (A) (A) (A) (A) (A) (A) (A) (A) (A)
                 (A) (A) (A) (A) (A) (A) (A) (A) (A) (A) (A) (A)
                 (A) (A) (A) (A) (A) (A) (A) (A) (A) (A) (A) (A)
                 (A) (A) (A) (A) (A) (A) (A) (A) (A) (A) (A) (A)
                 (A) (A) (A) (A) (A) (A) (A) (A) (A) (A) (A) (A)
                 (A) (A) (A) (A) (A) (A) (A) (A) (A) (A) (A) (A)
                 (A) (A) (A) (A) (A) (A) (A) (A) (A) (A) (A) (A)
                 (A) (A) (A) (A) (A) (A) (A) (A) (A) (A) (A) (A)
                 (A) (A) (A) (A) (A) (A) (A)
       Virtual   (A) (A) (A) (A) (A) (A) (A) (A) (A) (A) (A) (A)
                 (A) (A) (A) (A) (A) (A) (A) (A) (A) (A) (A) (A)
                 (A) (A) (A) (A) (A) (A) (A) (A) (A) (A) (A) (A)
                 (A) (A) (A) (A) (A) (A) (A) (A) (A) (A) (A) (A)
                 (A) (A) (A) (A) (A) (A) (A) (A) (A) (A) (A) (A)
                 (A) (A) (A) (A) (A) (A) (A) (A) (A) (A) (A) (A)
                 (A) (A) (A) (A) (A) (A) (A) (A) (A) (A) (A) (A)
                 (A) (A) (A) (A) (A) (A) (A) (A) (A) (A) (A) (A)
                 (A) (A) (A) (A) (A) (A) (A) (A) (A) (A) (A) (A)
                 (A) (A) (A) (A) (A) (A) (A) (A) (A) (A) (A) (A)
                 (A) (A) (A) (A) (A) (A) (A) (A) (A) (A) (A) (A)
                 (A) (A) (A) (A) (A) (A) (A) (A) (A) (A) (A) (A)
                 (A) (A) (A) (A) (A) (A) (A) (A) (A) (A) (A) (A)
                 (A) (A) (A) (A) (A) (A) (A) (A) (A) (A) (A) (A)
                 (A) (A) (A) (A) (A) (A) (A) (A) (A) (A) (A) (A)
                 (A) (A) (A) (A) (A) (A) (A) (A) (A) (A) (A) (A)
                 (A) (A) (A) (A) (A) (A) (A) (A) (A) (A) (A) (A)
                 (A) (A) (A) (A) (A) (A) (A) (A) (A) (A) (A) (A)
                 (A) (A) (A) (A) (A) (A) (A) (A) (A) (A) (A) (A)
                 (A) (A) (A) (A) (A) (A) (A) (A) (A) (A) (A) (A)
                 (A) (A) (A) (A) (A) (A) (A) (A) (A) (A) (A) (A)
                 (A) (A) (A) (A) (A) (A) (A) (A) (A) (A) (A) (A)
                 (A) (A) (A) (A) (A) (A) (A) (A) (A) (A) (A) (A)
                 (A) (A) (A) (A) (A) (A) (A) (A) (A) (A) (A) (A)
                 (A) (A) (A) (A) (A) (A) (A) (A) (A) (A) (A) (A)
                 (A) (A) (A) (A) (A) (A) (A) (A) (A) (A) (A) (A)
                 (A) (A) (A) (A) (A) (A) (A) (A) (A) (A) (A) (A)
                 (A) (A) (A) (A) (A) (A) (A) (A) (A) (A) (A) (A)
                 (A) (A) (A) (A) (A) (A) (A) (A) (A) (A) (A) (A)
                 (A) (A) (A) (A) (A) (A) (A) (A) (A) (A) (A) (A)
                 (A) (A) (A) (A) (A) (A) (A) (A) (A) (A) (A) (A)
                 (A) (A) (A) (A) (A) (A) (A) (A) (A) (A) (A) (A)
                 (A) (A) (A) (A) (A) (A) (A) (A) (A) (A) (A) (A)
                 (A) (A) (A) (A) (A) (A) (A) (A) (A) (A) (A) (A)
                 (A) (A) (A) (A) (A) (A) (A) (A) (A) (A) (A) (A)
                 (A) (A) (A) (A) (A) (A) (A) (A) (A) (A) (A) (A)
                 (A) (A) (A) (A) (A) (A) (A) (A) (A) (A) (A) (A)
                 (A) (A) (A) (A) (A) (A) (A) (A) (A) (A) (A) (A)
                 (A) (A) (A) (A) (A) (A) (A) (A) (A) (A) (A) (A)
                 (A) (A) (A) (A) (A) (A) (A) (A) (A) (A) (A) (A)
                 (A) (A) (A) (A) (A) (A) (A) (A) (A) (A) (A) (A)
                 (A) (A) (A) (A) (A) (A) (A) (A) (A) (A) (A) (A)
                 (A) (A) (A) (A) (A) (A) (A) (A) (A) (A) (A) (A)
                 (A) (A) (A) (A) (A) (A) (A) (A) (A) (A) (A) (A)
                 (A) (A) (A) (A) (A) (A) (A) (A) (A) (A) (A) (A)
                 (A) (A) (A) (A) (A) (A) (A) (A) (A) (A) (A) (A)
                 (A) (A) (A) (A) (A) (A) (A) (A) (A) (A) (A) (A)
                 (A) (A) (A) (A) (A) (A) (A) (A) (A) (A) (A) (A)
                 (A) (A) (A) (A) (A) (A) (A) (A) (A) (A) (A) (A)
                 (A) (A) (A) (A) (A) (A) (A) (A) (A) (A) (A) (A)
                 (A) (A) (A) (A) (A) (A) (A) (A) (A) (A) (A) (A)
                 (A) (A) (A) (A) (A) (A) (A) (A) (A) (A) (A) (A)
                 (A) (A) (A) (A) (A) (A) (A) (A) (A) (A) (A) (A)
                 (A) (A) (A) (A) (A) (A) (A) (A) (A) (A) (A) (A)
                 (A) (A) (A) (A) (A) (A) (A) (A) (A) (A) (A) (A)
                 (A) (A) (A) (A) (A) (A) (A) (A) (A) (A) (A) (A)
                 (A) (A) (A) (A) (A) (A) (A) (A) (A) (A) (A) (A)
                 (A) (A) (A) (A) (A) (A) (A) (A) (A) (A) (A) (A)
                 (A) (A) (A) (A) (A) (A) (A) (A) (A) (A) (A) (A)
                 (A) (A) (A) (A) (A) (A) (A) (A) (A) (A) (A) (A)
                 (A) (A) (A) (A) (A) (A) (A) (A) (A) (A) (A) (A)
                 (A) (A) (A) (A) (A) (A) (A) (A) (A) (A) (A) (A)
                 (A) (A) (A) (A) (A) (A) (A) (A) (A) (A) (A) (A)
                 (A) (A) (A) (A) (A) (A) (A) (A) (A) (A) (A) (A)
                 (A) (A) (A) (A) (A) (A) (A) (A) (A) (A) (A) (A)
                 (A) (A) (A) (A) (A) (A) (A) (A) (A) (A) (A) (A)
                 (A) (A) (A) (A) (A) (A) (A) (A) (A) (A) (A) (A)
                 (A) (A) (A) (A) (A) (A) (A) (A) (A) (A) (A) (A)
                 (A) (A) (A) (A) (A) (A) (A) (A) (A) (A) (A) (A)
                 (A) (A) (A) (A) (A) (A) (A) (A) (A) (A) (A) (A)
                 (A) (A) (A) (A) (A) (A) (A) (A) (A) (A) (A) (A)
                 (A) (A) (A) (A) (A) (A) (A) (A) (A) (A) (A) (A)
                 (A) (A) (A) (A) (A) (A) (A) (A) (A) (A) (A) (A)
                 (A) (A) (A) (A) (A) (A) (A) (A) (A) (A) (A) (A)
                 (A) (A) (A) (A) (A) (A) (A) (A) (A) (A) (A) (A)
                 (A) (A) (A) (A) (A) (A) (A) (A) (A) (A) (A) (A)
                 (A) (A) (A) (A) (A) (A) (A) (A) (A) (A) (A) (A)
                 (A) (A) (A) (A) (A) (A) (A) (A) (A) (A) (A) (A)
                 (A) (A) (A) (A) (A) (A) (A) (A) (A) (A) (A) (A)
                 (A) (A) (A) (A) (A) (A) (A) (A) (A) (A) (A) (A)
                 (A) (A) (A) (A) (A) (A) (A) (A) (A) (A) (A) (A)
                 (A) (A) (A) (A) (A) (A) (A) (A) (A) (A) (A) (A)
                 (A) (A) (A) (A) (A) (A) (A) (A) (A) (A) (A) (A)
                 (A) (A) (A) (A) (A) (A) (A) (A) (A) (A) (A) (A)
                 (A) (A) (A) (A) (A) (A) (A) (A) (A) (A) (A) (A)
                 (A) (A) (A) (A) (A) (A) (A) (A) (A) (A) (A) (A)
                 (A) (A) (A) (A) (A) (A) (A)
    40 initial guesses have been made.
 Convergence on wavefunction:    0.001000000000000
 Iteration     1 Dimension    40 NMult     0 NNew     40
 CISAX will form    40 AO SS matrices at one time.
 New state      3 was old state      4
 New state      4 was old state      3
 New state      5 was old state      6
 New state      6 was old state      7
 New state      7 was old state      5
 New state      9 was old state     10
 New state     10 was old state     14
 Iteration     2 Dimension    80 NMult    40 NNew     40
 New state     10 was old state     12
 Iteration     3 Dimension    90 NMult    80 NNew     10
 Iteration     4 Dimension    99 NMult    90 NNew      9
 Iteration     5 Dimension   108 NMult    99 NNew      9
 Iteration     6 Dimension   117 NMult   108 NNew      9
 Iteration     7 Dimension   124 NMult   117 NNew      7
 Iteration     8 Dimension   133 NMult   124 NNew      9
 Iteration     9 Dimension   141 NMult   133 NNew      8
 Iteration    10 Dimension   146 NMult   141 NNew      5
 Iteration    11 Dimension   148 NMult   146 NNew      2
 ***********************************************************************
 Excited states from <AA,BB:AA,BB> singles matrix:
 ***********************************************************************
 
 Ground to excited state transition densities written to RWF  633
 Ground to excited state transition electric dipole moments (Au):
       state          X           Y           Z        Dip. S.      Osc.
         1        -4.0421     -0.0183      0.0391     16.3401      0.5533
         2         0.6349      0.6417     -0.1120      0.8275      0.0348
         3         2.1035      1.1828     -0.2409      5.8820      0.3067
         4        -0.1491     -0.1486      0.0991      0.0541      0.0031
         5        -0.0257     -0.4698     -0.2797      0.2996      0.0175
         6        -1.1931     -0.0850     -0.0209      1.4311      0.0857
         7        -1.2726     -1.1389      0.3042      3.0092      0.1861
         8        -1.2169      1.1623     -0.2158      2.8783      0.1830
         9        -0.7562     -0.4566      0.1170      0.7940      0.0521
        10         1.4836      0.7805     -0.1149      2.8234      0.1932
 Ground to excited state transition velocity dipole moments (Au):
       state          X           Y           Z        Dip. S.      Osc.
         1         0.2047     -0.0002     -0.0022      0.0419      0.5501
         2        -0.0334     -0.0400      0.0070      0.0028      0.0292
         3        -0.1665     -0.0936      0.0176      0.0368      0.3137
         4         0.0146      0.0121     -0.0129      0.0005      0.0041
         5         0.0022      0.0397      0.0241      0.0022      0.0165
         6         0.1022      0.0058      0.0007      0.0105      0.0778
         7         0.1125      0.1010     -0.0286      0.0237      0.1703
         8         0.1131     -0.1086      0.0205      0.0250      0.1747
         9         0.0700      0.0450     -0.0131      0.0071      0.0481
        10        -0.1490     -0.0819      0.0120      0.0290      0.1887
 Ground to excited state transition magnetic dipole moments (Au):
       state          X           Y           Z
         1        -0.0173      0.0342     -0.0071
         2         0.0121     -0.0372     -0.1396
         3        -0.0451     -0.0233      0.1618
         4        -0.0984     -0.0696     -0.0963
         5        -0.0529     -0.2645      0.3782
         6        -0.0111      0.0268      0.2240
         7        -0.0667      0.0936      0.1845
         8        -0.0026      0.1241      0.4317
         9        -0.1136     -0.0433      0.0892
        10         0.0219      0.0533     -0.1839
 Ground to excited state transition velocity quadrupole moments (Au):
       state          XX          YY          ZZ          XY          XZ          YZ
         1        -0.0557     -0.1379      0.1021     -0.6874      0.1464      0.2201
         2         0.8698     -0.1095     -0.0058      0.3585     -0.0681      0.0033
         3         2.7017      0.0345      0.0109      1.3235     -0.2572     -0.0300
         4        -0.3730     -0.0636      0.0179     -0.1511      0.1217     -0.0710
         5         0.1094     -0.1513      0.0145      0.5060      0.3544     -0.0461
         6        -1.4525     -0.3192     -0.0229     -0.3191      0.0893      0.0842
         7        -1.3985      0.3503      0.0766     -1.2835      0.2749     -0.0379
         8         1.2367     -0.6578      0.0706      0.2108     -0.0588      0.3086
         9        -1.1897      0.0586      0.0164     -0.6327      0.2168      0.0587
        10         1.5903     -0.2980     -0.1162      1.0870     -0.2901     -0.0712
 <0|del|b> * <b|rxdel|0> + <0|del|b> * <b|delr+rdel|0>
 Rotatory Strengths (R) in cgs (10**-40 erg-esu-cm/Gauss)
       state          XX          YY          ZZ    R(velocity)    E-M Angle
         1        10.9629    278.3494   -338.6111    -16.4329      116.33
         2         1.6949    -22.4874     21.9550      0.3875       89.22
         3        19.3480    -35.9462    130.0687     37.8235       67.31
         4         3.6369    -13.2284      0.9517     -2.8799      107.08
         5       -13.1037    -13.3210     14.3708     -4.0180       93.96
         6        -1.6865     30.8463    -35.6981     -2.1794       92.06
         7        50.1377   -205.0876    129.5470     -8.4676       95.72
         8       -24.8463    145.0389   -156.7933    -12.2002       93.99
         9       -16.4389    -47.9449    -15.2349    -26.5396      150.64
        10       -59.4075    -27.4072     19.0164    -22.5994      107.43
 1/2[<0|r|b>*<b|rxdel|0> + (<0|rxdel|b>*<b|r|0>)*]
 Rotatory Strengths (R) in cgs (10**-40 erg-esu-cm/Gauss)
       state          XX          YY          ZZ     R(length)
         1       -49.5524      0.4438      0.1957    -16.3043
         2        -5.4331     16.8975    -11.0566      0.1360
         3        67.1586     19.4966     27.5637     38.0730
         4       -10.3724     -7.3155      6.7520     -3.6453
         5        -0.9614    -87.8710     74.8190     -4.6711
         6        -9.4070      1.6130      3.3068     -1.4957
         7       -59.9874     75.3549    -39.6826     -8.1050
         8        -2.2745   -102.0048     65.8783    -12.8003
         9       -60.7576    -13.9741     -7.3824    -27.3714
        10       -22.9381    -29.4420    -14.9485    -22.4428
  1/2[<0|del|b>*<b|r|0> + (<0|r|b>*<b|del|0>)*] (Au)
       state          X           Y           Z        Dip. S.   Osc.(frdel)
         1        -0.8274      0.0000     -0.0001      0.8275      0.5517
         2        -0.0212     -0.0257     -0.0008      0.0477      0.0318
         3        -0.3503     -0.1107     -0.0042      0.4652      0.3101
         4        -0.0022     -0.0018     -0.0013      0.0053      0.0035
         5        -0.0001     -0.0186     -0.0067      0.0254      0.0170
         6        -0.1220     -0.0005     -0.0000      0.1225      0.0817
         7        -0.1432     -0.1151     -0.0087      0.2670      0.1780
         8        -0.1377     -0.1262     -0.0044      0.2683      0.1788
         9        -0.0529     -0.0206     -0.0015      0.0750      0.0500
        10        -0.2210     -0.0639     -0.0014      0.2863      0.1909

 Excitation energies and oscillator strengths:
 
 Excited State   1:      Singlet-A      1.3821 eV  897.09 nm  f=0.5533  <S**2>=0.000
     198 -> 200        0.15140
     199 -> 200        0.69021
 This state for optimization and/or second-order correction.
 Total Energy, E(TD-HF/TD-DFT) =  -2765.10333637    
 Copying the excited state density for this state as the 1-particle RhoCI density.
 
 Excited State   2:      Singlet-A      1.7173 eV  721.98 nm  f=0.0348  <S**2>=0.000
     198 -> 200       -0.18712
     198 -> 201        0.10760
     199 -> 201        0.67046
 
 Excited State   3:      Singlet-A      2.1281 eV  582.61 nm  f=0.3067  <S**2>=0.000
     198 -> 200        0.63523
     198 -> 201        0.15278
     199 -> 200       -0.15660
     199 -> 201        0.15359
 
 Excited State   4:      Singlet-A      2.3147 eV  535.64 nm  f=0.0031  <S**2>=0.000
     197 -> 200        0.68657
     198 -> 201       -0.13898
 
 Excited State   5:      Singlet-A      2.3795 eV  521.05 nm  f=0.0175  <S**2>=0.000
     195 -> 200        0.36159
     196 -> 200        0.60517
 
 Excited State   6:      Singlet-A      2.4447 eV  507.16 nm  f=0.0857  <S**2>=0.000
     194 -> 200       -0.20036
     195 -> 200        0.37994
     196 -> 200       -0.21142
     198 -> 201        0.45876
     199 -> 202       -0.12144
 
 Excited State   7:      Singlet-A      2.5245 eV  491.13 nm  f=0.1861  <S**2>=0.000
     194 -> 200       -0.16655
     195 -> 200       -0.38767
     196 -> 200        0.23523
     198 -> 201        0.39816
     199 -> 202        0.26154
 
 Excited State   8:      Singlet-A      2.5957 eV  477.65 nm  f=0.1830  <S**2>=0.000
     195 -> 200        0.22002
     196 -> 200       -0.14604
     199 -> 202        0.61534
 
 Excited State   9:      Singlet-A      2.6760 eV  463.32 nm  f=0.0521  <S**2>=0.000
     193 -> 200        0.43980
     194 -> 200        0.50645
     198 -> 201        0.13665
 
 Excited State  10:      Singlet-A      2.7923 eV  444.02 nm  f=0.1932  <S**2>=0.000
     191 -> 200        0.10077
     193 -> 200        0.49771
     194 -> 200       -0.29370
     198 -> 201       -0.11442
     199 -> 203       -0.31107
     199 -> 204       -0.12110
 SavETr:  write IOETrn=   770 NScale= 10 NData=  16 NLR=1 NState=   10 LETran=     190.

 **********************************************************************

            Population analysis using the SCF Density.

 **********************************************************************

 Orbital symmetries:
       Occupied  (A) (A) (A) (A) (A) (A) (A) (A) (A) (A) (A) (A)
                 (A) (A) (A) (A) (A) (A) (A) (A) (A) (A) (A) (A)
                 (A) (A) (A) (A) (A) (A) (A) (A) (A) (A) (A) (A)
                 (A) (A) (A) (A) (A) (A) (A) (A) (A) (A) (A) (A)
                 (A) (A) (A) (A) (A) (A) (A) (A) (A) (A) (A) (A)
                 (A) (A) (A) (A) (A) (A) (A) (A) (A) (A) (A) (A)
                 (A) (A) (A) (A) (A) (A) (A) (A) (A) (A) (A) (A)
                 (A) (A) (A) (A) (A) (A) (A) (A) (A) (A) (A) (A)
                 (A) (A) (A) (A) (A) (A) (A) (A) (A) (A) (A) (A)
                 (A) (A) (A) (A) (A) (A) (A) (A) (A) (A) (A) (A)
                 (A) (A) (A) (A) (A) (A) (A) (A) (A) (A) (A) (A)
                 (A) (A) (A) (A) (A) (A) (A) (A) (A) (A) (A) (A)
                 (A) (A) (A) (A) (A) (A) (A) (A) (A) (A) (A) (A)
                 (A) (A) (A) (A) (A) (A) (A) (A) (A) (A) (A) (A)
                 (A) (A) (A) (A) (A) (A) (A) (A) (A) (A) (A) (A)
                 (A) (A) (A) (A) (A) (A) (A) (A) (A) (A) (A) (A)
                 (A) (A) (A) (A) (A) (A) (A)
       Virtual   (A) (A) (A) (A) (A) (A) (A) (A) (A) (A) (A) (A)
                 (A) (A) (A) (A) (A) (A) (A) (A) (A) (A) (A) (A)
                 (A) (A) (A) (A) (A) (A) (A) (A) (A) (A) (A) (A)
                 (A) (A) (A) (A) (A) (A) (A) (A) (A) (A) (A) (A)
                 (A) (A) (A) (A) (A) (A) (A) (A) (A) (A) (A) (A)
                 (A) (A) (A) (A) (A) (A) (A) (A) (A) (A) (A) (A)
                 (A) (A) (A) (A) (A) (A) (A) (A) (A) (A) (A) (A)
                 (A) (A) (A) (A) (A) (A) (A) (A) (A) (A) (A) (A)
                 (A) (A) (A) (A) (A) (A) (A) (A) (A) (A) (A) (A)
                 (A) (A) (A) (A) (A) (A) (A) (A) (A) (A) (A) (A)
                 (A) (A) (A) (A) (A) (A) (A) (A) (A) (A) (A) (A)
                 (A) (A) (A) (A) (A) (A) (A) (A) (A) (A) (A) (A)
                 (A) (A) (A) (A) (A) (A) (A) (A) (A) (A) (A) (A)
                 (A) (A) (A) (A) (A) (A) (A) (A) (A) (A) (A) (A)
                 (A) (A) (A) (A) (A) (A) (A) (A) (A) (A) (A) (A)
                 (A) (A) (A) (A) (A) (A) (A) (A) (A) (A) (A) (A)
                 (A) (A) (A) (A) (A) (A) (A) (A) (A) (A) (A) (A)
                 (A) (A) (A) (A) (A) (A) (A) (A) (A) (A) (A) (A)
                 (A) (A) (A) (A) (A) (A) (A) (A) (A) (A) (A) (A)
                 (A) (A) (A) (A) (A) (A) (A) (A) (A) (A) (A) (A)
                 (A) (A) (A) (A) (A) (A) (A) (A) (A) (A) (A) (A)
                 (A) (A) (A) (A) (A) (A) (A) (A) (A) (A) (A) (A)
                 (A) (A) (A) (A) (A) (A) (A) (A) (A) (A) (A) (A)
                 (A) (A) (A) (A) (A) (A) (A) (A) (A) (A) (A) (A)
                 (A) (A) (A) (A) (A) (A) (A) (A) (A) (A) (A) (A)
                 (A) (A) (A) (A) (A) (A) (A) (A) (A) (A) (A) (A)
                 (A) (A) (A) (A) (A) (A) (A) (A) (A) (A) (A) (A)
                 (A) (A) (A) (A) (A) (A) (A) (A) (A) (A) (A) (A)
                 (A) (A) (A) (A) (A) (A) (A) (A) (A) (A) (A) (A)
                 (A) (A) (A) (A) (A) (A) (A) (A) (A) (A) (A) (A)
                 (A) (A) (A) (A) (A) (A) (A) (A) (A) (A) (A) (A)
                 (A) (A) (A) (A) (A) (A) (A) (A) (A) (A) (A) (A)
                 (A) (A) (A) (A) (A) (A) (A) (A) (A) (A) (A) (A)
                 (A) (A) (A) (A) (A) (A) (A) (A) (A) (A) (A) (A)
                 (A) (A) (A) (A) (A) (A) (A) (A) (A) (A) (A) (A)
                 (A) (A) (A) (A) (A) (A) (A) (A) (A) (A) (A) (A)
                 (A) (A) (A) (A) (A) (A) (A) (A) (A) (A) (A) (A)
                 (A) (A) (A) (A) (A) (A) (A) (A) (A) (A) (A) (A)
                 (A) (A) (A) (A) (A) (A) (A) (A) (A) (A) (A) (A)
                 (A) (A) (A) (A) (A) (A) (A) (A) (A) (A) (A) (A)
                 (A) (A) (A) (A) (A) (A) (A) (A) (A) (A) (A) (A)
                 (A) (A) (A) (A) (A) (A) (A) (A) (A) (A) (A) (A)
                 (A) (A) (A) (A) (A) (A) (A) (A) (A) (A) (A) (A)
                 (A) (A) (A) (A) (A) (A) (A) (A) (A) (A) (A) (A)
                 (A) (A) (A) (A) (A) (A) (A) (A) (A) (A) (A) (A)
                 (A) (A) (A) (A) (A) (A) (A) (A) (A) (A) (A) (A)
                 (A) (A) (A) (A) (A) (A) (A) (A) (A) (A) (A) (A)
                 (A) (A) (A) (A) (A) (A) (A) (A) (A) (A) (A) (A)
                 (A) (A) (A) (A) (A) (A) (A) (A) (A) (A) (A) (A)
                 (A) (A) (A) (A) (A) (A) (A) (A) (A) (A) (A) (A)
                 (A) (A) (A) (A) (A) (A) (A) (A) (A) (A) (A) (A)
                 (A) (A) (A) (A) (A) (A) (A) (A) (A) (A) (A) (A)
                 (A) (A) (A) (A) (A) (A) (A) (A) (A) (A) (A) (A)
                 (A) (A) (A) (A) (A) (A) (A) (A) (A) (A) (A) (A)
                 (A) (A) (A) (A) (A) (A) (A) (A) (A) (A) (A) (A)
                 (A) (A) (A) (A) (A) (A) (A) (A) (A) (A) (A) (A)
                 (A) (A) (A) (A) (A) (A) (A) (A) (A) (A) (A) (A)
                 (A) (A) (A) (A) (A) (A) (A) (A) (A) (A) (A) (A)
                 (A) (A) (A) (A) (A) (A) (A) (A) (A) (A) (A) (A)
                 (A) (A) (A) (A) (A) (A) (A) (A) (A) (A) (A) (A)
                 (A) (A) (A) (A) (A) (A) (A) (A) (A) (A) (A) (A)
                 (A) (A) (A) (A) (A) (A) (A) (A) (A) (A) (A) (A)
                 (A) (A) (A) (A) (A) (A) (A) (A) (A) (A) (A) (A)
                 (A) (A) (A) (A) (A) (A) (A) (A) (A) (A) (A) (A)
                 (A) (A) (A) (A) (A) (A) (A) (A) (A) (A) (A) (A)
                 (A) (A) (A) (A) (A) (A) (A) (A) (A) (A) (A) (A)
                 (A) (A) (A) (A) (A) (A) (A) (A) (A) (A) (A) (A)
                 (A) (A) (A) (A) (A) (A) (A) (A) (A) (A) (A) (A)
                 (A) (A) (A) (A) (A) (A) (A) (A) (A) (A) (A) (A)
                 (A) (A) (A) (A) (A) (A) (A) (A) (A) (A) (A) (A)
                 (A) (A) (A) (A) (A) (A) (A) (A) (A) (A) (A) (A)
                 (A) (A) (A) (A) (A) (A) (A) (A) (A) (A) (A) (A)
                 (A) (A) (A) (A) (A) (A) (A) (A) (A) (A) (A) (A)
                 (A) (A) (A) (A) (A) (A) (A) (A) (A) (A) (A) (A)
                 (A) (A) (A) (A) (A) (A) (A) (A) (A) (A) (A) (A)
                 (A) (A) (A) (A) (A) (A) (A) (A) (A) (A) (A) (A)
                 (A) (A) (A) (A) (A) (A) (A) (A) (A) (A) (A) (A)
                 (A) (A) (A) (A) (A) (A) (A) (A) (A) (A) (A) (A)
                 (A) (A) (A) (A) (A) (A) (A) (A) (A) (A) (A) (A)
                 (A) (A) (A) (A) (A) (A) (A) (A) (A) (A) (A) (A)
                 (A) (A) (A) (A) (A) (A) (A) (A) (A) (A) (A) (A)
                 (A) (A) (A) (A) (A) (A) (A) (A) (A) (A) (A) (A)
                 (A) (A) (A) (A) (A) (A) (A) (A) (A) (A) (A) (A)
                 (A) (A) (A) (A) (A) (A) (A) (A) (A) (A) (A) (A)
                 (A) (A) (A) (A) (A) (A) (A) (A) (A) (A) (A) (A)
                 (A) (A) (A) (A) (A) (A) (A) (A) (A) (A) (A) (A)
                 (A) (A) (A) (A) (A) (A) (A)
 The electronic state is 1-A.
 Alpha  occ. eigenvalues --  -88.08551 -18.78909 -18.78850 -18.78439 -18.71721
 Alpha  occ. eigenvalues --  -14.03122 -13.99749 -13.99650 -13.96328 -10.00203
 Alpha  occ. eigenvalues --   -9.95389  -9.95331  -9.94586  -9.94465  -9.94397
 Alpha  occ. eigenvalues --   -9.94385  -9.93916  -9.93858  -9.93456  -9.93287
 Alpha  occ. eigenvalues --   -9.93214  -9.93088  -9.93036  -9.93028  -9.92656
 Alpha  occ. eigenvalues --   -9.91965  -9.90992  -9.90705  -9.90663  -9.90384
 Alpha  occ. eigenvalues --   -9.90246  -9.90156  -9.89920  -9.89861  -9.89760
 Alpha  occ. eigenvalues --   -9.89733  -9.89713  -9.89712  -9.89646  -9.89603
 Alpha  occ. eigenvalues --   -9.89344  -9.89287  -9.89262  -9.89223  -9.89132
 Alpha  occ. eigenvalues --   -9.89106  -9.89078  -9.89051  -9.89038  -9.89026
 Alpha  occ. eigenvalues --   -9.88916  -9.88906  -9.88879  -9.88847  -9.88769
 Alpha  occ. eigenvalues --   -9.88753  -9.88748  -7.72068  -5.74209  -5.73762
 Alpha  occ. eigenvalues --   -5.73467  -1.01169  -0.99371  -0.99315  -0.92976
 Alpha  occ. eigenvalues --   -0.91299  -0.90079  -0.84717  -0.82816  -0.82103
 Alpha  occ. eigenvalues --   -0.80142  -0.79600  -0.79463  -0.78995  -0.78606
 Alpha  occ. eigenvalues --   -0.77742  -0.75790  -0.72684  -0.72470  -0.71122
 Alpha  occ. eigenvalues --   -0.70435  -0.69795  -0.69512  -0.69355  -0.69141
 Alpha  occ. eigenvalues --   -0.68747  -0.68496  -0.68243  -0.68150  -0.66913
 Alpha  occ. eigenvalues --   -0.65698  -0.65264  -0.63142  -0.61715  -0.61117
 Alpha  occ. eigenvalues --   -0.59522  -0.57834  -0.57253  -0.57181  -0.57010
 Alpha  occ. eigenvalues --   -0.56380  -0.56240  -0.55741  -0.55186  -0.55040
 Alpha  occ. eigenvalues --   -0.54767  -0.54014  -0.53331  -0.52506  -0.51544
 Alpha  occ. eigenvalues --   -0.51290  -0.50374  -0.50292  -0.49793  -0.48861
 Alpha  occ. eigenvalues --   -0.48267  -0.48115  -0.47935  -0.46915  -0.45524
 Alpha  occ. eigenvalues --   -0.44805  -0.44418  -0.44090  -0.43971  -0.43222
 Alpha  occ. eigenvalues --   -0.43156  -0.42286  -0.42183  -0.41835  -0.41504
 Alpha  occ. eigenvalues --   -0.41360  -0.41221  -0.40664  -0.40462  -0.40304
 Alpha  occ. eigenvalues --   -0.40029  -0.39973  -0.39464  -0.39333  -0.39025
 Alpha  occ. eigenvalues --   -0.38952  -0.38794  -0.38629  -0.38428  -0.38235
 Alpha  occ. eigenvalues --   -0.38067  -0.37927  -0.37868  -0.37486  -0.37347
 Alpha  occ. eigenvalues --   -0.36742  -0.36108  -0.35967  -0.35693  -0.35463
 Alpha  occ. eigenvalues --   -0.35269  -0.34805  -0.34598  -0.34248  -0.34197
 Alpha  occ. eigenvalues --   -0.33757  -0.33373  -0.33162  -0.33115  -0.32999
 Alpha  occ. eigenvalues --   -0.32364  -0.31955  -0.31552  -0.31261  -0.30995
 Alpha  occ. eigenvalues --   -0.30768  -0.30636  -0.30405  -0.30176  -0.30141
 Alpha  occ. eigenvalues --   -0.29884  -0.29735  -0.29667  -0.28785  -0.28170
 Alpha  occ. eigenvalues --   -0.27448  -0.27253  -0.26953  -0.25546  -0.24830
 Alpha  occ. eigenvalues --   -0.24819  -0.24259  -0.24252  -0.24013  -0.23818
 Alpha  occ. eigenvalues --   -0.23494  -0.23218  -0.22643  -0.22271  -0.21467
 Alpha  occ. eigenvalues --   -0.21432  -0.21083  -0.19272  -0.16660
 Alpha virt. eigenvalues --   -0.12775  -0.10739  -0.07493  -0.06530  -0.06333
 Alpha virt. eigenvalues --   -0.05011  -0.04926  -0.04830  -0.04661  -0.04196
 Alpha virt. eigenvalues --   -0.04100  -0.03826  -0.03508  -0.02116  -0.01536
 Alpha virt. eigenvalues --   -0.01155  -0.00623   0.00472   0.00826   0.01121
 Alpha virt. eigenvalues --    0.01401   0.01701   0.02202   0.02267   0.03014
 Alpha virt. eigenvalues --    0.03158   0.04046   0.04320   0.04835   0.04902
 Alpha virt. eigenvalues --    0.05344   0.05390   0.05742   0.06114   0.06302
 Alpha virt. eigenvalues --    0.06362   0.06807   0.07471   0.07533   0.07622
 Alpha virt. eigenvalues --    0.08078   0.08087   0.08159   0.08519   0.08608
 Alpha virt. eigenvalues --    0.08796   0.09241   0.09313   0.09588   0.09683
 Alpha virt. eigenvalues --    0.09762   0.09916   0.10352   0.10484   0.10785
 Alpha virt. eigenvalues --    0.11108   0.11390   0.11498   0.11562   0.12014
 Alpha virt. eigenvalues --    0.12125   0.12178   0.12813   0.13297   0.13554
 Alpha virt. eigenvalues --    0.14449   0.15717   0.16412   0.16545   0.16798
 Alpha virt. eigenvalues --    0.17113   0.17885   0.18033   0.18360   0.18719
 Alpha virt. eigenvalues --    0.19502   0.19674   0.19949   0.20336   0.20784
 Alpha virt. eigenvalues --    0.21626   0.21752   0.22177   0.22605   0.22781
 Alpha virt. eigenvalues --    0.22919   0.23274   0.23384   0.23644   0.24094
 Alpha virt. eigenvalues --    0.24384   0.24641   0.24922   0.25270   0.25570
 Alpha virt. eigenvalues --    0.25979   0.26372   0.26542   0.26709   0.26766
 Alpha virt. eigenvalues --    0.26844   0.26906   0.27047   0.27105   0.27295
 Alpha virt. eigenvalues --    0.27568   0.28099   0.28582   0.28880   0.29436
 Alpha virt. eigenvalues --    0.29635   0.30004   0.30179   0.31579   0.31701
 Alpha virt. eigenvalues --    0.31847   0.32028   0.32455   0.32601   0.32662
 Alpha virt. eigenvalues --    0.32817   0.32857   0.33330   0.33547   0.33595
 Alpha virt. eigenvalues --    0.33789   0.33948   0.34115   0.34417   0.34604
 Alpha virt. eigenvalues --    0.34785   0.34957   0.35057   0.35128   0.35457
 Alpha virt. eigenvalues --    0.35538   0.35746   0.36074   0.36153   0.36539
 Alpha virt. eigenvalues --    0.36558   0.36720   0.36817   0.37095   0.37225
 Alpha virt. eigenvalues --    0.37253   0.37595   0.37671   0.38082   0.38213
 Alpha virt. eigenvalues --    0.38309   0.38600   0.38650   0.38786   0.38878
 Alpha virt. eigenvalues --    0.38957   0.39371   0.39597   0.39760   0.40038
 Alpha virt. eigenvalues --    0.40173   0.40389   0.40689   0.40789   0.40968
 Alpha virt. eigenvalues --    0.41057   0.41162   0.41570   0.41691   0.41990
 Alpha virt. eigenvalues --    0.42336   0.42774   0.42851   0.43031   0.43279
 Alpha virt. eigenvalues --    0.43365   0.43494   0.43725   0.44180   0.44262
 Alpha virt. eigenvalues --    0.44576   0.44857   0.44917   0.45377   0.45600
 Alpha virt. eigenvalues --    0.45899   0.45999   0.46337   0.46807   0.47097
 Alpha virt. eigenvalues --    0.47525   0.47869   0.48227   0.48600   0.48841
 Alpha virt. eigenvalues --    0.49505   0.49592   0.49742   0.50088   0.50263
 Alpha virt. eigenvalues --    0.50432   0.50570   0.50856   0.51004   0.51616
 Alpha virt. eigenvalues --    0.51751   0.51989   0.52266   0.52425   0.52775
 Alpha virt. eigenvalues --    0.52809   0.53168   0.53208   0.53513   0.53618
 Alpha virt. eigenvalues --    0.53907   0.54392   0.54591   0.54831   0.55147
 Alpha virt. eigenvalues --    0.55646   0.55706   0.56098   0.56157   0.56342
 Alpha virt. eigenvalues --    0.56466   0.56679   0.56727   0.56817   0.57011
 Alpha virt. eigenvalues --    0.57329   0.57429   0.57562   0.57690   0.58050
 Alpha virt. eigenvalues --    0.58383   0.58435   0.59054   0.59275   0.59473
 Alpha virt. eigenvalues --    0.59588   0.59679   0.60020   0.60147   0.60289
 Alpha virt. eigenvalues --    0.60759   0.60945   0.61127   0.61186   0.61405
 Alpha virt. eigenvalues --    0.61649   0.61840   0.61987   0.62119   0.62526
 Alpha virt. eigenvalues --    0.63145   0.63600   0.63834   0.64024   0.64135
 Alpha virt. eigenvalues --    0.64223   0.64725   0.65153   0.65199   0.65521
 Alpha virt. eigenvalues --    0.66021   0.66299   0.67066   0.67682   0.68472
 Alpha virt. eigenvalues --    0.69120   0.69134   0.69381   0.69565   0.69811
 Alpha virt. eigenvalues --    0.69879   0.70124   0.70526   0.70739   0.71267
 Alpha virt. eigenvalues --    0.71469   0.71924   0.72418   0.72540   0.73382
 Alpha virt. eigenvalues --    0.73508   0.73705   0.73932   0.74065   0.74331
 Alpha virt. eigenvalues --    0.74498   0.74715   0.74923   0.75071   0.75271
 Alpha virt. eigenvalues --    0.75486   0.75783   0.76783   0.76913   0.77346
 Alpha virt. eigenvalues --    0.77878   0.78110   0.78275   0.78457   0.79026
 Alpha virt. eigenvalues --    0.79313   0.79349   0.80063   0.80164   0.80597
 Alpha virt. eigenvalues --    0.80869   0.81101   0.81557   0.81678   0.81892
 Alpha virt. eigenvalues --    0.82435   0.82936   0.83048   0.83227   0.83599
 Alpha virt. eigenvalues --    0.84085   0.84420   0.84529   0.85101   0.85259
 Alpha virt. eigenvalues --    0.85412   0.85790   0.86430   0.86729   0.87342
 Alpha virt. eigenvalues --    0.87767   0.88033   0.88226   0.88710   0.88974
 Alpha virt. eigenvalues --    0.89364   0.89918   0.90342   0.90455   0.90740
 Alpha virt. eigenvalues --    0.91150   0.91634   0.91805   0.92433   0.93295
 Alpha virt. eigenvalues --    0.93390   0.93564   0.93909   0.94387   0.94611
 Alpha virt. eigenvalues --    0.94768   0.94922   0.95176   0.95678   0.95871
 Alpha virt. eigenvalues --    0.96468   0.96652   0.97025   0.97339   0.97457
 Alpha virt. eigenvalues --    0.97881   0.98063   0.98508   0.98638   0.99232
 Alpha virt. eigenvalues --    0.99411   0.99835   0.99964   1.00297   1.00582
 Alpha virt. eigenvalues --    1.00697   1.00927   1.01200   1.01467   1.01866
 Alpha virt. eigenvalues --    1.01916   1.02045   1.02360   1.02608   1.03461
 Alpha virt. eigenvalues --    1.03532   1.04168   1.04333   1.04551   1.04677
 Alpha virt. eigenvalues --    1.04907   1.05721   1.05953   1.06505   1.06774
 Alpha virt. eigenvalues --    1.06991   1.07231   1.07407   1.07817   1.08419
 Alpha virt. eigenvalues --    1.08777   1.09152   1.09436   1.09489   1.10147
 Alpha virt. eigenvalues --    1.10746   1.11058   1.11673   1.13262   1.14676
 Alpha virt. eigenvalues --    1.15209   1.15723   1.16627   1.17099   1.17937
 Alpha virt. eigenvalues --    1.18068   1.18920   1.19601   1.20005   1.20192
 Alpha virt. eigenvalues --    1.21271   1.21950   1.22924   1.23181   1.23672
 Alpha virt. eigenvalues --    1.24399   1.24905   1.25728   1.25821   1.26536
 Alpha virt. eigenvalues --    1.27142   1.28052   1.28651   1.28895   1.29330
 Alpha virt. eigenvalues --    1.29562   1.29851   1.31471   1.32169   1.32910
 Alpha virt. eigenvalues --    1.33841   1.33998   1.34113   1.35571   1.35630
 Alpha virt. eigenvalues --    1.35802   1.35873   1.36196   1.36772   1.37007
 Alpha virt. eigenvalues --    1.37033   1.37313   1.37620   1.38152   1.38163
 Alpha virt. eigenvalues --    1.38637   1.38839   1.38962   1.39243   1.39290
 Alpha virt. eigenvalues --    1.39452   1.39859   1.40405   1.40543   1.40624
 Alpha virt. eigenvalues --    1.41397   1.41812   1.42226   1.42711   1.42999
 Alpha virt. eigenvalues --    1.43534   1.43564   1.44309   1.44873   1.45056
 Alpha virt. eigenvalues --    1.45192   1.46067   1.46222   1.46656   1.47132
 Alpha virt. eigenvalues --    1.47255   1.47614   1.47838   1.48157   1.48344
 Alpha virt. eigenvalues --    1.48494   1.48676   1.48749   1.48864   1.49032
 Alpha virt. eigenvalues --    1.49472   1.49557   1.49933   1.50146   1.50556
 Alpha virt. eigenvalues --    1.50770   1.50989   1.51432   1.51737   1.51927
 Alpha virt. eigenvalues --    1.52060   1.52259   1.52403   1.52931   1.53292
 Alpha virt. eigenvalues --    1.53467   1.53917   1.54174   1.54607   1.55018
 Alpha virt. eigenvalues --    1.55274   1.56299   1.56627   1.56983   1.57201
 Alpha virt. eigenvalues --    1.57632   1.58055   1.58229   1.58383   1.58506
 Alpha virt. eigenvalues --    1.58726   1.59072   1.59764   1.60195   1.60447
 Alpha virt. eigenvalues --    1.60566   1.61105   1.61457   1.61664   1.61906
 Alpha virt. eigenvalues --    1.62335   1.62767   1.63860   1.64810   1.65169
 Alpha virt. eigenvalues --    1.65351   1.65907   1.65945   1.66333   1.66478
 Alpha virt. eigenvalues --    1.66684   1.66758   1.67260   1.67427   1.68230
 Alpha virt. eigenvalues --    1.68661   1.68837   1.69127   1.69472   1.69772
 Alpha virt. eigenvalues --    1.69962   1.70356   1.70456   1.70730   1.71045
 Alpha virt. eigenvalues --    1.71508   1.71927   1.72100   1.72516   1.72788
 Alpha virt. eigenvalues --    1.73075   1.73765   1.74583   1.75395   1.76568
 Alpha virt. eigenvalues --    1.76729   1.77071   1.77180   1.78615   1.78866
 Alpha virt. eigenvalues --    1.78997   1.79261   1.79737   1.80337   1.80759
 Alpha virt. eigenvalues --    1.80935   1.81459   1.81665   1.81930   1.82261
 Alpha virt. eigenvalues --    1.82594   1.82862   1.83061   1.83574   1.83845
 Alpha virt. eigenvalues --    1.83972   1.84010   1.84319   1.84545   1.84705
 Alpha virt. eigenvalues --    1.84758   1.85161   1.85447   1.85513   1.85846
 Alpha virt. eigenvalues --    1.86115   1.86447   1.86880   1.86980   1.87214
 Alpha virt. eigenvalues --    1.87374   1.87588   1.87957   1.88068   1.88480
 Alpha virt. eigenvalues --    1.89107   1.89403   1.90231   1.90704   1.91096
 Alpha virt. eigenvalues --    1.91444   1.91904   1.92011   1.92325   1.92451
 Alpha virt. eigenvalues --    1.92826   1.93267   1.93999   1.94455   1.94677
 Alpha virt. eigenvalues --    1.95047   1.95513   1.96095   1.97075   1.97759
 Alpha virt. eigenvalues --    1.98184   1.98284   1.98958   1.99314   1.99356
 Alpha virt. eigenvalues --    1.99859   2.00034   2.00484   2.00642   2.00866
 Alpha virt. eigenvalues --    2.01045   2.01356   2.01418   2.01585   2.02718
 Alpha virt. eigenvalues --    2.03146   2.03433   2.03915   2.04189   2.04847
 Alpha virt. eigenvalues --    2.05379   2.06474   2.07413   2.07665   2.08781
 Alpha virt. eigenvalues --    2.09790   2.10035   2.10540   2.11201   2.11684
 Alpha virt. eigenvalues --    2.12766   2.14603   2.14797   2.16906   2.17673
 Alpha virt. eigenvalues --    2.18361   2.19190   2.19367   2.20015   2.20747
 Alpha virt. eigenvalues --    2.20877   2.21578   2.22399   2.22846   2.23114
 Alpha virt. eigenvalues --    2.23610   2.23838   2.24240   2.24550   2.24697
 Alpha virt. eigenvalues --    2.24936   2.25508   2.25715   2.26600   2.26907
 Alpha virt. eigenvalues --    2.27137   2.27423   2.27575   2.28222   2.28427
 Alpha virt. eigenvalues --    2.28567   2.29855   2.30137   2.30360   2.31413
 Alpha virt. eigenvalues --    2.31688   2.32465   2.32732   2.32904   2.33015
 Alpha virt. eigenvalues --    2.33698   2.34706   2.35072   2.35387   2.36200
 Alpha virt. eigenvalues --    2.36276   2.36891   2.38287   2.40834   2.41020
 Alpha virt. eigenvalues --    2.41302   2.41798   2.43033   2.43585   2.44130
 Alpha virt. eigenvalues --    2.44978   2.45073   2.45502   2.46546   2.47987
 Alpha virt. eigenvalues --    2.48535   2.48738   2.49194   2.49937   2.49986
 Alpha virt. eigenvalues --    2.50135   2.50696   2.51489   2.52005   2.52209
 Alpha virt. eigenvalues --    2.52472   2.52594   2.53023   2.53193   2.53490
 Alpha virt. eigenvalues --    2.53785   2.53951   2.54046   2.54550   2.54804
 Alpha virt. eigenvalues --    2.54972   2.55154   2.55283   2.55414   2.55702
 Alpha virt. eigenvalues --    2.56275   2.56571   2.56684   2.57070   2.57488
 Alpha virt. eigenvalues --    2.57546   2.57889   2.58491   2.58672   2.59188
 Alpha virt. eigenvalues --    2.59300   2.59340   2.59818   2.60129   2.60475
 Alpha virt. eigenvalues --    2.60819   2.60896   2.60964   2.61122   2.61802
 Alpha virt. eigenvalues --    2.62089   2.62289   2.62631   2.62886   2.63509
 Alpha virt. eigenvalues --    2.63721   2.63922   2.64213   2.64339   2.64541
 Alpha virt. eigenvalues --    2.65202   2.65522   2.65731   2.66001   2.66932
 Alpha virt. eigenvalues --    2.67176   2.67290   2.67706   2.67757   2.68021
 Alpha virt. eigenvalues --    2.68762   2.69958   2.70318   2.71219   2.71395
 Alpha virt. eigenvalues --    2.71765   2.72314   2.73087   2.73252   2.73768
 Alpha virt. eigenvalues --    2.74158   2.74692   2.74750   2.75474   2.75499
 Alpha virt. eigenvalues --    2.76171   2.76590   2.77299   2.77425   2.77890
 Alpha virt. eigenvalues --    2.78356   2.78908   2.79788   2.80301   2.81229
 Alpha virt. eigenvalues --    2.81608   2.82438   2.82952   2.83202   2.83288
 Alpha virt. eigenvalues --    2.83682   2.83798   2.84025   2.84184   2.84350
 Alpha virt. eigenvalues --    2.85201   2.85613   2.85862   2.86446   2.87164
 Alpha virt. eigenvalues --    2.87868   2.88336   2.89617   2.91080   2.91266
 Alpha virt. eigenvalues --    2.91888   2.92171   2.93113   2.93155   2.93346
 Alpha virt. eigenvalues --    2.93458   2.93538   2.94180   2.94353   2.96533
 Alpha virt. eigenvalues --    2.96561   2.97183   2.97693   2.98902   2.99228
 Alpha virt. eigenvalues --    3.00101   3.00733   3.01430   3.02031   3.03251
 Alpha virt. eigenvalues --    3.04454   3.06128   3.06596   3.06825   3.08589
 Alpha virt. eigenvalues --    3.08722   3.09146   3.09486   3.11056   3.12067
 Alpha virt. eigenvalues --    3.12541   3.12619   3.12922   3.13762   3.16251
 Alpha virt. eigenvalues --    3.18073   3.19427   3.19863   3.21746   3.21830
 Alpha virt. eigenvalues --    3.23610   3.24430   3.25027   3.25075   3.25441
 Alpha virt. eigenvalues --    3.25740   3.26239   3.26868   3.26922   3.27224
 Alpha virt. eigenvalues --    3.27652   3.28350   3.29150   3.29922   3.30204
 Alpha virt. eigenvalues --    3.30827   3.31259   3.34678   3.37163   3.37551
 Alpha virt. eigenvalues --    3.37773   3.38024   3.38834   3.39444   3.39655
 Alpha virt. eigenvalues --    3.39925   3.39980   3.40997   3.42117   3.43616
 Alpha virt. eigenvalues --    3.44169   3.45982   3.46722   3.47290   3.48548
 Alpha virt. eigenvalues --    3.49404   3.50677   3.51309   3.52074   3.52808
 Alpha virt. eigenvalues --    3.53659   3.53799   3.59574   3.60301   3.63046
 Alpha virt. eigenvalues --    3.65689   3.65758   3.68246   3.69045   3.70507
 Alpha virt. eigenvalues --    3.71921   3.75661   3.76758   3.77006   3.79430
 Alpha virt. eigenvalues --    3.80154   3.83007   3.85027   3.85482   3.86839
 Alpha virt. eigenvalues --    3.87693   3.87913   3.88419   3.88910   3.90529
 Alpha virt. eigenvalues --    3.91766   3.92212   3.93279   3.94291   3.94565
 Alpha virt. eigenvalues --    3.94661   3.96504   3.99229   4.00391   4.00549
 Alpha virt. eigenvalues --    4.00863   4.02106   4.02546   4.03215   4.03804
 Alpha virt. eigenvalues --    4.04274   4.05223   4.05603   4.06244   4.06706
 Alpha virt. eigenvalues --    4.07201   4.09337   4.09732   4.10773   4.20067
 Alpha virt. eigenvalues --    4.33337   4.38091   4.38961   4.42437   4.45416
 Alpha virt. eigenvalues --    4.60227   4.71244   4.73359   4.73551   4.73598
 Alpha virt. eigenvalues --    4.73665   4.73732   4.74296   4.76187   4.76337
 Alpha virt. eigenvalues --    4.80317   4.89721   4.91122   4.95204   5.03086
 Alpha virt. eigenvalues --    5.14058   5.14305   5.15767   5.27567   5.42874
 Alpha virt. eigenvalues --    5.62494   5.62820   5.67220   7.66288  16.96077
 Alpha virt. eigenvalues --   17.26206  17.30572  23.18643  23.22299  23.27084
 Alpha virt. eigenvalues --   23.28527  23.30492  23.35935  23.38972  23.46188
 Alpha virt. eigenvalues --   23.54260  23.55625  23.56165  23.60000  23.60091
 Alpha virt. eigenvalues --   23.63531  23.63821  23.64296  23.64673  23.65279
 Alpha virt. eigenvalues --   23.66388  23.66960  23.67269  23.67397  23.67669
 Alpha virt. eigenvalues --   23.68176  23.68384  23.70894  23.73022  23.73833
 Alpha virt. eigenvalues --   23.75142  23.77621  23.78206  23.78489  23.81197
 Alpha virt. eigenvalues --   23.81724  23.84323  23.84715  23.84755  23.85163
 Alpha virt. eigenvalues --   23.86526  23.87313  23.87972  23.91546  23.91730
 Alpha virt. eigenvalues --   23.92537  23.92646  23.93356  23.93638  24.18731
 Alpha virt. eigenvalues --   35.27288  35.30671  35.38755  35.52593  49.45528
 Alpha virt. eigenvalues --   49.51004  49.51095  49.62841 188.13176
          Condensed to atoms (all electrons):
 Mulliken charges:
               1
     1  C   -0.094142
     2  C   -0.097378
     3  C   -0.324949
     4  C    0.212120
     5  C    0.230559
     6  C   -0.350164
     7  H    0.084562
     8  H    0.097961
     9  C    0.148727
    10  C    0.130254
    11  C   -0.190369
    12  C   -0.190576
    13  C    0.037674
    14  C   -0.018412
    15  H    0.121264
    16  C   -0.105601
    17  H    0.131253
    18  C    0.020335
    19  C   -0.013520
    20  C   -0.124961
    21  C    0.205449
    22  C   -0.117618
    23  C   -0.107138
    24  H    0.115707
    25  H    0.121164
    26  C   -0.079713
    27  H    0.119666
    28  H    0.098324
    29  C   -0.084778
    30  C   -0.095064
    31  C   -0.079152
    32  H    0.100400
    33  C   -0.051821
    34  C    0.025207
    35  C   -0.048494
    36  C   -0.090263
    37  C    0.159524
    38  C   -0.129062
    39  C   -0.044137
    40  H    0.102622
    41  H    0.106336
    42  C    0.012077
    43  H    0.112514
    44  H    0.107200
    45  C    0.023796
    46  C   -0.048652
    47  C   -0.090058
    48  C    0.159346
    49  C   -0.129937
    50  C   -0.046427
    51  H    0.102955
    52  H    0.106712
    53  H    0.112213
    54  H    0.107688
    55  C   -0.193350
    56  H    0.105831
    57  H    0.099402
    58  H    0.080434
    59  H    0.098074
    60  H    0.103736
    61  C   -0.020231
    62  H    0.095801
    63  H    0.097335
    64  C   -0.156409
    65  C    0.386881
    66  H    0.098480
    67  H    0.107463
    68  S    0.392617
    69  N   -0.355029
    70  N   -0.342416
    71  N   -0.480296
    72  C   -0.027135
    73  C   -0.156421
    74  C   -0.018689
    75  C   -0.026088
    76  C   -0.082801
    77  C   -0.095029
    78  H    0.144165
    79  H    0.128339
    80  H    0.128723
    81  H    0.143888
    82  H    0.129133
    83  H    0.128621
    84  O   -0.307666
    85  O   -0.307797
    86  H    0.098731
    87  O   -0.267753
    88  O   -0.262839
    89  C    0.070257
    90  N   -0.233574
    91  H    0.234391
 Sum of Mulliken charges =  -0.00000
 Mulliken charges with hydrogens summed into heavy atoms:
               1
     1  C    0.003931
     2  C   -0.000042
     3  C   -0.324949
     4  C    0.212120
     5  C    0.230559
     6  C   -0.350164
     9  C    0.148727
    10  C    0.130254
    11  C    0.210858
    12  C    0.211066
    13  C    0.037674
    14  C    0.112841
    16  C   -0.006870
    18  C    0.020335
    19  C    0.102187
    20  C   -0.003797
    21  C    0.205449
    22  C    0.002048
    23  C   -0.008814
    26  C    0.004849
    29  C    0.013182
    30  C    0.003416
    31  C   -0.079152
    33  C    0.069442
    34  C    0.025207
    35  C    0.054128
    36  C    0.016073
    37  C    0.159524
    38  C   -0.016547
    39  C    0.063063
    42  C    0.092511
    45  C    0.023796
    46  C    0.054303
    47  C    0.016653
    48  C    0.159346
    49  C   -0.017724
    50  C    0.061261
    55  C   -0.193350
    61  C    0.087232
    64  C   -0.156409
    65  C    0.386881
    68  S    0.392617
    69  N   -0.355029
    70  N   -0.342416
    71  N   -0.480296
    72  C    0.068666
    73  C   -0.156421
    74  C    0.087142
    75  C    0.073314
    76  C    0.017599
    77  C    0.008707
    84  O   -0.307666
    85  O   -0.307797
    87  O   -0.267753
    88  O   -0.028448
    89  C    0.070257
    90  N   -0.233574
 Electronic spatial extent (au):  <R**2>=          70029.3671
 Charge=             -0.0000 electrons
 Dipole moment (field-independent basis, Debye):
    X=             16.0249    Y=              0.7862    Z=             -1.4449  Tot=             16.1091
 Quadrupole moment (field-independent basis, Debye-Ang):
   XX=           -446.8298   YY=           -286.4664   ZZ=           -309.0229
   XY=            -28.5147   XZ=             15.8006   YZ=             18.1968
 Traceless Quadrupole moment (field-independent basis, Debye-Ang):
   XX=            -99.3901   YY=             60.9733   ZZ=             38.4168
   XY=            -28.5147   XZ=             15.8006   YZ=             18.1968
 Octapole moment (field-independent basis, Debye-Ang**2):
  XXX=           2157.0198  YYY=             -4.5148  ZZZ=              6.7224  XYY=             91.0602
  XXY=            372.3608  XXZ=           -146.5306  XZZ=            234.0685  YZZ=            -15.4587
  YYZ=            -93.3524  XYZ=             91.6398
 Hexadecapole moment (field-independent basis, Debye-Ang**3):
 XXXX=         -89775.5414 YYYY=         -21069.3927 ZZZZ=          -3673.6506 XXXY=          -5122.6617
 XXXZ=           2700.2030 YYYX=           -500.1576 YYYZ=            496.1201 ZZZX=            140.1096
 ZZZY=            504.7687 XXYY=         -14973.5316 XXZZ=         -10707.2219 YYZZ=          -3976.3280
 XXYZ=           1873.5644 YYXZ=             -9.0573 ZZXY=           -229.1790
 N-N= 6.899318323917D+03 E-N=-2.026006458012D+04  KE= 2.757875273623D+03
 Unable to Open any file for archive entry.
 1\1\GINC-CN102\SP\RPBEPBE TD-FC\6-311G(d,p)\C48H34N4O4S1\R2532\27-Jul-
 2021\0\\#N TD(NStates=10) PBEPBE/6-311G(d,p)\\C25H20ON4\\0,1\C,0,-4.63
 1031,5.361136,-2.411965\C,0,0.952221,5.740697,-1.473753\C,0,-0.146433,
 -0.44537,0.14703\C,0,-0.947089,0.692174,-0.068337\C,0,-2.35902,0.42956
 7,-0.016011\C,0,-2.679179,-0.90898,0.260187\H,0,-5.288656,-4.617098,1.
 156981\H,0,0.860507,7.799804,-0.847875\C,0,-2.784972,2.629555,-0.53127
 9\C,0,-1.353809,2.914069,-0.481952\C,0,7.824722,-5.776095,-3.623969\C,
 0,8.820585,3.045063,3.915736\C,0,-3.958167,-1.574327,0.389483\C,0,-5.1
 76556,-0.890741,0.151509\H,0,-7.291372,-0.958003,0.072563\C,0,-4.04353
 ,-2.938276,0.753936\H,0,-5.141231,0.149716,-0.135119\C,0,1.297547,-0.5
 98599,0.150351\C,0,2.162457,0.505724,0.306889\C,0,3.536785,0.351629,0.
 317724\C,0,4.132468,-0.918346,0.171651\C,0,3.273532,-2.027315,0.018133
 \C,0,1.901525,-1.865332,0.006245\H,0,1.739779,1.494807,0.40786\H,0,4.1
 64243,1.225272,0.435011\C,0,-5.26243,-3.570822,0.872697\H,0,3.691571,-
 3.01869,-0.094374\H,0,1.284605,-2.747058,-0.127164\C,0,0.40428,6.81886
 1,-0.779223\C,0,-0.731085,6.628444,0.007254\C,0,-6.479154,-2.889616,0.
 638832\H,0,-6.588008,6.143747,-1.971527\C,0,-6.394931,-1.527437,0.2717
 05\C,0,6.371743,-0.113043,0.805884\C,0,7.424824,0.474129,0.091519\C,0,
 8.271763,1.383955,0.703834\C,0,8.078764,1.742664,2.045104\C,0,7.027087
 ,1.165339,2.763738\C,0,6.191132,0.237049,2.144271\H,0,7.579146,0.20930
 8,-0.94769\H,0,9.088486,1.839686,0.156997\C,0,-7.695069,-3.647394,0.79
 0412\H,0,6.857048,1.415032,3.802069\H,0,5.387599,-0.216572,2.712302\C,
 0,6.141089,-2.190242,-0.470033\C,0,7.052582,-2.993299,0.228903\C,0,7.6
 8093,-4.057226,-0.398404\C,0,7.40267,-4.356297,-1.739342\C,0,6.491011,
 -3.562645,-2.442798\C,0,5.877831,-2.482852,-1.808608\H,0,7.26951,-2.77
 6009,1.267963\H,0,8.38737,-4.680452,0.136639\H,0,6.261671,-3.761504,-3
 .480711\H,0,5.184685,-1.863495,-2.365415\C,0,-9.015144,-3.303944,0.695
 865\H,0,-2.717927,4.41289,-2.611118\H,0,-5.148781,3.074038,0.663746\H,
 0,-7.506319,-4.683242,1.059202\H,0,-4.48742,5.987204,-3.285059\H,0,-6.
 913955,4.681992,0.008889\C,0,-1.326181,5.372509,0.08809\H,0,0.798017,3
 .639362,-1.911234\H,0,1.835597,5.880502,-2.086415\C,0,-0.783844,4.2835
 23,-0.607833\C,0,-10.121801,-4.275787,0.951255\H,0,-1.154853,7.458551,
 0.560742\H,0,-2.205096,5.237183,0.706238\S,0,-1.186602,-1.801887,0.445
 836\N,0,-3.24773,1.425711,-0.272546\N,0,-0.483638,1.946718,-0.288249\N
 ,0,5.519459,-1.074533,0.175518\C,0,0.368612,4.480809,-1.381344\C,0,-3.
 80555,3.6432,-0.914214\C,0,-3.629759,4.472905,-2.029876\C,0,-5.004933,
 3.721022,-0.192913\C,0,-5.813238,5.444955,-1.677486\C,0,-5.996733,4.62
 306,-0.565829\H,0,8.446316,-6.647642,-3.819049\H,0,6.774233,-6.034687,
 -3.789716\H,0,8.113716,-4.965439,-4.300067\H,0,9.616962,3.763855,4.097
 804\H,0,7.852263,3.522568,4.09503\H,0,8.939376,2.192469,4.591564\O,0,8
 .064222,-5.426213,-2.261112\O,0,8.959743,2.649126,2.551526\H,0,-3.1432
 57,-3.508059,0.950856\O,0,-11.24029,-3.925952,1.237937\O,0,-9.834414,-
 5.595084,0.86736\C,0,-9.478038,-1.97966,0.450833\N,0,-9.870299,-0.9112
 76,0.245382\H,0,-8.98977,-5.75154,0.426869\\Version=ES64L-G16RevC.01\S
 tate=1-A\HF=-2765.1541267\RMSD=2.797e-09\PG=C01 [X(C48H34N4O4S1)]\\@
 The archive entry for this job was punched.



 IN THIS SHORT LIFE

 THAT ONLY LASTS AN HOUR

 HOW MUCH, HOW LITTLE, IS WITHIN OUR POWER....


 EMILY DICKINSON BOLTS OF MELODY NO. 521
 Job cpu time:       0 days  4 hours 22 minutes 44.2 seconds.
 Elapsed time:       0 days  4 hours 22 minutes 48.4 seconds.
 File lengths (MBytes):  RWF=   8102 Int=      0 D2E=      0 Chk=    574 Scr=      1
 Normal termination of Gaussian 16 at Tue Jul 27 15:11:37 2021.
