 Entering Gaussian System, Link 0=g16
 Input=ES.com
 Output=ES.out
 Initial command:
 /usr/local/apps/gaussian/g16-b01-avx2//g16/l1.exe "/tmp/r2532.851525.maple/Gau-21857.inp" -scrdir="/tmp/r2532.851525.maple/"
 Entering Link 1 = /usr/local/apps/gaussian/g16-b01-avx2//g16/l1.exe PID=     22101.
  
 Copyright (c) 1988-2017, Gaussian, Inc.  All Rights Reserved.
  
 This is part of the Gaussian(R) 16 program.  It is based on
 the Gaussian(R) 09 system (copyright 2009, Gaussian, Inc.),
 the Gaussian(R) 03 system (copyright 2003, Gaussian, Inc.),
 the Gaussian(R) 98 system (copyright 1998, Gaussian, Inc.),
 the Gaussian(R) 94 system (copyright 1995, Gaussian, Inc.),
 the Gaussian 92(TM) system (copyright 1992, Gaussian, Inc.),
 the Gaussian 90(TM) system (copyright 1990, Gaussian, Inc.),
 the Gaussian 88(TM) system (copyright 1988, Gaussian, Inc.),
 the Gaussian 86(TM) system (copyright 1986, Carnegie Mellon
 University), and the Gaussian 82(TM) system (copyright 1983,
 Carnegie Mellon University). Gaussian is a federally registered
 trademark of Gaussian, Inc.
  
 This software contains proprietary and confidential information,
 including trade secrets, belonging to Gaussian, Inc.
  
 This software is provided under written license and may be
 used, copied, transmitted, or stored only in accord with that
 written license.
  
 The following legend is applicable only to US Government
 contracts under FAR:
  
                    RESTRICTED RIGHTS LEGEND
  
 Use, reproduction and disclosure by the US Government is
 subject to restrictions as set forth in subparagraphs (a)
 and (c) of the Commercial Computer Software - Restricted
 Rights clause in FAR 52.227-19.
  
 Gaussian, Inc.
 340 Quinnipiac St., Bldg. 40, Wallingford CT 06492
  
  
 ---------------------------------------------------------------
 Warning -- This program may not be used in any manner that
 competes with the business of Gaussian, Inc. or will provide
 assistance to any competitor of Gaussian, Inc.  The licensee
 of this program is prohibited from giving any competitor of
 Gaussian, Inc. access to this program.  By using this program,
 the user acknowledges that Gaussian, Inc. is engaged in the
 business of creating and licensing software in the field of
 computational chemistry and represents and warrants to the
 licensee that it is not a competitor of Gaussian, Inc. and that
 it will not use this program in any manner prohibited above.
 ---------------------------------------------------------------
  

 Cite this work as:
 Gaussian 16, Revision B.01,
 M. J. Frisch, G. W. Trucks, H. B. Schlegel, G. E. Scuseria, 
 M. A. Robb, J. R. Cheeseman, G. Scalmani, V. Barone, 
 G. A. Petersson, H. Nakatsuji, X. Li, M. Caricato, A. V. Marenich, 
 J. Bloino, B. G. Janesko, R. Gomperts, B. Mennucci, H. P. Hratchian, 
 J. V. Ortiz, A. F. Izmaylov, J. L. Sonnenberg, D. Williams-Young, 
 F. Ding, F. Lipparini, F. Egidi, J. Goings, B. Peng, A. Petrone, 
 T. Henderson, D. Ranasinghe, V. G. Zakrzewski, J. Gao, N. Rega, 
 G. Zheng, W. Liang, M. Hada, M. Ehara, K. Toyota, R. Fukuda, 
 J. Hasegawa, M. Ishida, T. Nakajima, Y. Honda, O. Kitao, H. Nakai, 
 T. Vreven, K. Throssell, J. A. Montgomery, Jr., J. E. Peralta, 
 F. Ogliaro, M. J. Bearpark, J. J. Heyd, E. N. Brothers, K. N. Kudin, 
 V. N. Staroverov, T. A. Keith, R. Kobayashi, J. Normand, 
 K. Raghavachari, A. P. Rendell, J. C. Burant, S. S. Iyengar, 
 J. Tomasi, M. Cossi, J. M. Millam, M. Klene, C. Adamo, R. Cammi, 
 J. W. Ochterski, R. L. Martin, K. Morokuma, O. Farkas, 
 J. B. Foresman, and D. J. Fox, Gaussian, Inc., Wallingford CT, 2016.
 
 ******************************************
 Gaussian 16:  ES64L-G16RevB.01 20-Dec-2017
                11-Jun-2021 
 ******************************************
 %mem=8gb
 ----------------------------------------
 #N TD(NStates=10) CAM-B3lYP/6-311+G(d,p)
 ----------------------------------------
 1/38=1,172=1/1;
 2/12=2,17=6,18=5,40=1/2;
 3/5=4,6=6,7=111,11=9,25=1,30=1,74=-40/1,2,3,8;
 4//1;
 5/5=2,38=5/2;
 8/6=1,10=2,108=10/1;
 9/41=10,42=1,70=2/14;
 6/7=2,8=2,9=2,10=2/1;
 99/5=1,9=1/99;
 ----
 Name
 ----
 Symbolic Z-matrix:
 Charge =  0 Multiplicity = 1
 6                     0.93737  -3.07345  -0.18667 
 6                     2.12287  -2.11525  -0.08166 
 6                     1.67932  -0.8041    0.06845 
 6                     0.24933  -0.78717   0.07773 
 16                   -1.03641   0.36103   0.21552 
 6                    -2.23886  -0.92615   0.05558 
 6                    -3.66345  -0.61872   0.08808 
 6                    -4.16707   0.63979  -0.28462 
 6                    -5.52322   0.91821  -0.26005 
 6                    -6.45364  -0.05647   0.14537 
 7                    -7.82802   0.22115   0.17817 
 6                    -8.3007    1.55297   0.38581 
 6                    -9.2542    2.10972  -0.46577 
 1                    -9.62521   1.52842  -1.30142 
 6                    -9.74567   3.39753  -0.25291 
 6                    -9.267     4.15743   0.81702 
 6                    -8.3043    3.60531   1.67269 
 6                    -7.83674   2.31876   1.46616 
 1                    -7.10302   1.89706   2.14277 
 1                    -7.95078   4.20256   2.50434 
 8                    -9.66831   5.42528   1.11427 
 6                    -10.64223   6.03995   0.28244 
 1                    -10.28531   6.13903  -0.74886 
 1                    -11.58568   5.48251   0.28856 
 1                    -10.80803   7.03089   0.70155 
 1                    -10.48879   3.79437  -0.93121 
 6                    -8.79054  -0.816    -0.01459 
 6                    -8.70689  -1.68172  -1.10535 
 6                    -9.64725  -2.69412  -1.29497 
 6                    -10.70787  -2.83637  -0.39654 
 6                    -10.80507  -1.9603    0.69236 
 6                    -9.85575  -0.97086   0.88449 
 1                    -9.93578  -0.30347   1.73416 
 1                    -11.63103  -2.0851    1.38194 
 8                    -11.68672  -3.78038  -0.48918 
 6                    -11.64573  -4.69413  -1.57594 
 1                    -11.72295  -4.17736  -2.53919 
 1                    -10.73103  -5.29752  -1.55983 
 1                    -12.50803  -5.34631  -1.44855 
 1                    -9.54839  -3.34875  -2.15031 
 1                    -7.89486  -1.56908  -1.81389 
 6                    -5.95718  -1.31887   0.52374 
 6                    -4.60013  -1.58717   0.49474 
 1                    -4.25383  -2.55733   0.83193 
 1                    -6.64587  -2.0827    0.86097 
 1                    -5.87359   1.89365  -0.57133 
 1                    -3.48639   1.40814  -0.63469 
 6                    -1.62549  -2.16105  -0.07841 
 6                    -0.21972  -2.0834   -0.06482 
 1                    -2.19197  -3.07258  -0.2147 
 16                    2.97765   0.32206   0.18497 
 6                     4.16218  -0.98809   0.01242 
 6                     3.51621  -2.21773  -0.11396 
 1                     4.06458  -3.14215  -0.24465 
 6                     5.56705  -0.7373    0.04514 
 16                    6.68086  -2.03652   0.37656 
 6                     8.11724  -1.00735   0.24972 
 6                     7.69972   0.29807  -0.01318 
 6                     6.28361   0.45519  -0.1447 
 6                     5.91829   1.77686  -0.54353 
 6                     7.00203   2.58067  -0.71621 
 16                    8.54275   1.78183  -0.38 
 6                     6.92949   3.99545  -1.12736 
 8                     5.9002    4.58649  -1.35272 
 8                     8.15699   4.5424   -1.22147 
 6                     8.20206   5.92907  -1.60434 
 1                     7.75699   6.06463  -2.59108 
 1                     7.66179   6.53969  -0.87974 
 1                     9.25704   6.19099  -1.61758 
 1                     4.91461   2.13592  -0.71661 
 6                     9.37614  -1.65344   0.3541 
 6                     10.62216  -1.15892   0.65376 
 6                     10.83171   0.14424   1.17759 
 7                     10.99525   1.19398   1.63525 
 6                     11.83447  -2.03674   0.64516 
 8                     11.76302  -3.14754  -0.14686 
 1                     11.0612  -3.0442   -0.79945 
 8                     12.81695  -1.81893   1.29612 
 1                     9.33135  -2.73041   0.20604 
 6                     0.91727  -3.80042  -1.54825 
 1                     0.92417  -3.0863   -2.37401 
 1                     1.78943  -4.45222  -1.6488 
 1                     0.02102  -4.42022  -1.63746 
 6                     0.93018  -4.09326   0.97224 
 1                     0.94722  -3.58743   1.93955 
 1                     0.0336   -4.71732   0.9264 
 1                     1.80217  -4.75016   0.91157 
 
 Stoichiometry    C43H32N2O6S4
 Framework group  C1[X(C43H32N2O6S4)]
 Deg. of freedom   255
 Full point group                 C1      NOp   1
 Largest Abelian subgroup         C1      NOp   1
 Largest concise Abelian subgroup C1      NOp   1
                         Standard orientation:                         
 ---------------------------------------------------------------------
 Center     Atomic      Atomic             Coordinates (Angstroms)
 Number     Number       Type             X           Y           Z
 ---------------------------------------------------------------------
      1          6           0       -0.937367   -3.073447    0.186672
      2          6           0       -2.122867   -2.115248    0.081661
      3          6           0       -1.679316   -0.804099   -0.068452
      4          6           0       -0.249325   -0.787165   -0.077728
      5         16           0        1.036410    0.361025   -0.215518
      6          6           0        2.238860   -0.926149   -0.055578
      7          6           0        3.663445   -0.618716   -0.088081
      8          6           0        4.167072    0.639785    0.284618
      9          6           0        5.523215    0.918205    0.260048
     10          6           0        6.453643   -0.056471   -0.145370
     11          7           0        7.828021    0.221147   -0.178165
     12          6           0        8.300703    1.552970   -0.385806
     13          6           0        9.254197    2.109715    0.465769
     14          1           0        9.625209    1.528423    1.301420
     15          6           0        9.745666    3.397532    0.252908
     16          6           0        9.267005    4.157431   -0.817016
     17          6           0        8.304305    3.605310   -1.672687
     18          6           0        7.836741    2.318757   -1.466163
     19          1           0        7.103023    1.897060   -2.142771
     20          1           0        7.950783    4.202556   -2.504337
     21          8           0        9.668305    5.425275   -1.114274
     22          6           0       10.642233    6.039950   -0.282435
     23          1           0       10.285306    6.139026    0.748855
     24          1           0       11.585682    5.482513   -0.288556
     25          1           0       10.808033    7.030888   -0.701547
     26          1           0       10.488787    3.794368    0.931210
     27          6           0        8.790537   -0.816003    0.014590
     28          6           0        8.706892   -1.681719    1.105345
     29          6           0        9.647255   -2.694117    1.294967
     30          6           0       10.707870   -2.836370    0.396541
     31          6           0       10.805065   -1.960304   -0.692355
     32          6           0        9.855745   -0.970857   -0.884487
     33          1           0        9.935782   -0.303465   -1.734163
     34          1           0       11.631034   -2.085101   -1.381938
     35          8           0       11.686719   -3.780380    0.489179
     36          6           0       11.645727   -4.694126    1.575939
     37          1           0       11.722954   -4.177359    2.539191
     38          1           0       10.731032   -5.297522    1.559834
     39          1           0       12.508032   -5.346312    1.448547
     40          1           0        9.548391   -3.348753    2.150306
     41          1           0        7.894861   -1.569078    1.813892
     42          6           0        5.957184   -1.318867   -0.523743
     43          6           0        4.600126   -1.587169   -0.494737
     44          1           0        4.253834   -2.557328   -0.831925
     45          1           0        6.645870   -2.082701   -0.860973
     46          1           0        5.873589    1.893646    0.571326
     47          1           0        3.486389    1.408137    0.634689
     48          6           0        1.625489   -2.161053    0.078410
     49          6           0        0.219718   -2.083396    0.064821
     50          1           0        2.191968   -3.072577    0.214700
     51         16           0       -2.977646    0.322058   -0.184968
     52          6           0       -4.162184   -0.988087   -0.012416
     53          6           0       -3.516210   -2.217730    0.113955
     54          1           0       -4.064580   -3.142153    0.244654
     55          6           0       -5.567054   -0.737299   -0.045138
     56         16           0       -6.680862   -2.036515   -0.376555
     57          6           0       -8.117241   -1.007346   -0.249715
     58          6           0       -7.699721    0.298072    0.013178
     59          6           0       -6.283611    0.455188    0.144695
     60          6           0       -5.918293    1.776862    0.543528
     61          6           0       -7.002029    2.580666    0.716207
     62         16           0       -8.542754    1.781825    0.380001
     63          6           0       -6.929485    3.995445    1.127359
     64          8           0       -5.900200    4.586493    1.352715
     65          8           0       -8.156994    4.542399    1.221469
     66          6           0       -8.202058    5.929065    1.604344
     67          1           0       -7.756993    6.064628    2.591080
     68          1           0       -7.661788    6.539691    0.879736
     69          1           0       -9.257040    6.190991    1.617581
     70          1           0       -4.914608    2.135918    0.716605
     71          6           0       -9.376140   -1.653440   -0.354095
     72          6           0      -10.622163   -1.158916   -0.653764
     73          6           0      -10.831709    0.144243   -1.177590
     74          7           0      -10.995247    1.193976   -1.635252
     75          6           0      -11.834467   -2.036742   -0.645164
     76          8           0      -11.763023   -3.147544    0.146859
     77          1           0      -11.061204   -3.044195    0.799445
     78          8           0      -12.816952   -1.818928   -1.296115
     79          1           0       -9.331350   -2.730405   -0.206037
     80          6           0       -0.917271   -3.800420    1.548251
     81          1           0       -0.924169   -3.086302    2.374015
     82          1           0       -1.789433   -4.452223    1.648799
     83          1           0       -0.021019   -4.420217    1.637464
     84          6           0       -0.930182   -4.093261   -0.972236
     85          1           0       -0.947217   -3.587426   -1.939546
     86          1           0       -0.033600   -4.717316   -0.926403
     87          1           0       -1.802170   -4.750158   -0.911574
 ---------------------------------------------------------------------
 Rotational constants (GHZ):           0.0816788           0.0106340           0.0095919
 Standard basis: 6-311+G(d,p) (5D, 7F)
 There are  1489 symmetry adapted cartesian basis functions of A   symmetry.
 There are  1434 symmetry adapted basis functions of A   symmetry.
  1434 basis functions,  2292 primitive gaussians,  1489 cartesian basis functions
   208 alpha electrons      208 beta electrons
       nuclear repulsion energy      7134.6351005501 Hartrees.
 NAtoms=   87 NActive=   87 NUniq=   87 SFac= 1.00D+00 NAtFMM=   60 NAOKFM=T Big=T
 Integral buffers will be    131072 words long.
 Raffenetti 1 integral format.
 Two-electron integral symmetry is turned on.
 One-electron integrals computed using PRISM.
 NBasis=  1434 RedAO= T EigKep=  1.07D-06  NBF=  1434
 NBsUse=  1414 1.00D-06 EigRej=  9.85D-07 NBFU=  1414
 ExpMin= 4.05D-02 ExpMax= 9.34D+04 ExpMxC= 3.17D+03 IAcc=3 IRadAn=         5 AccDes= 0.00D+00
 Harris functional with IExCor=20419 and IRadAn=       5 diagonalized for initial guess.
 HarFok:  IExCor=20419 AccDes= 0.00D+00 IRadAn=         5 IDoV= 1 UseB2=F ITyADJ=14
 ICtDFT=  3500011 ScaDFX=  1.000000  1.000000  1.000000  1.000000
 FoFCou: FMM=F IPFlag=           0 FMFlag=      100000 FMFlg1=        2001
         NFxFlg=           0 DoJE=T BraDBF=F KetDBF=T FulRan=T
         wScrn=  0.000000 ICntrl=       500 IOpCl=  0 I1Cent=   200000004 NGrid=           0
         NMat0=    1 NMatS0=      1 NMatT0=    0 NMatD0=    1 NMtDS0=    0 NMtDT0=    0
 Petite list used in FoFCou.
 Requested convergence on RMS density matrix=1.00D-08 within 128 cycles.
 Requested convergence on MAX density matrix=1.00D-06.
 Requested convergence on             energy=1.00D-06.
 No special actions if energy rises.
 Restarting incremental Fock formation.
 SCF Done:  E(RCAM-B3LYP) =  -3810.90593399     A.U. after   24 cycles
            NFock= 24  Conv=0.38D-08     -V/T= 2.0026
 DoSCS=F DFT=T ScalE2(SS,OS)=  1.000000  1.000000
 ExpMin= 4.05D-02 ExpMax= 9.34D+04 ExpMxC= 3.17D+03 IAcc=3 IRadAn=         5 AccDes= 0.00D+00
 HarFok:  IExCor=  205 AccDes= 0.00D+00 IRadAn=         5 IDoV=-2 UseB2=F ITyADJ=14
 ICtDFT= 12500011 ScaDFX=  1.000000  1.000000  1.000000  1.000000
 GSVD:  LWork=       -5609 too small for GESVD, short by       26270 words or       26270 for optimal perf.
 Range of M.O.s used for correlation:    72  1414
 NBasis=  1434 NAE=   208 NBE=   208 NFC=    71 NFV=     0
 NROrb=   1343 NOA=   137 NOB=   137 NVA=  1206 NVB=  1206

 **** Warning!!: The largest alpha MO coefficient is  0.12197115D+03

 Orbital symmetries:
       Occupied  (A) (A) (A) (A) (A) (A) (A) (A) (A) (A) (A) (A)
                 (A) (A) (A) (A) (A) (A) (A) (A) (A) (A) (A) (A)
                 (A) (A) (A) (A) (A) (A) (A) (A) (A) (A) (A) (A)
                 (A) (A) (A) (A) (A) (A) (A) (A) (A) (A) (A) (A)
                 (A) (A) (A) (A) (A) (A) (A) (A) (A) (A) (A) (A)
                 (A) (A) (A) (A) (A) (A) (A) (A) (A) (A) (A) (A)
                 (A) (A) (A) (A) (A) (A) (A) (A) (A) (A) (A) (A)
                 (A) (A) (A) (A) (A) (A) (A) (A) (A) (A) (A) (A)
                 (A) (A) (A) (A) (A) (A) (A) (A) (A) (A) (A) (A)
                 (A) (A) (A) (A) (A) (A) (A) (A) (A) (A) (A) (A)
                 (A) (A) (A) (A) (A) (A) (A) (A) (A) (A) (A) (A)
                 (A) (A) (A) (A) (A) (A) (A) (A) (A) (A) (A) (A)
                 (A) (A) (A) (A) (A) (A) (A) (A) (A) (A) (A) (A)
                 (A) (A) (A) (A) (A) (A) (A) (A) (A) (A) (A) (A)
                 (A) (A) (A) (A) (A) (A) (A) (A) (A) (A) (A) (A)
                 (A) (A) (A) (A) (A) (A) (A) (A) (A) (A) (A) (A)
                 (A) (A) (A) (A) (A) (A) (A) (A) (A) (A) (A) (A)
                 (A) (A) (A) (A)
       Virtual   (A) (A) (A) (A) (A) (A) (A) (A) (A) (A) (A) (A)
                 (A) (A) (A) (A) (A) (A) (A) (A) (A) (A) (A) (A)
                 (A) (A) (A) (A) (A) (A) (A) (A) (A) (A) (A) (A)
                 (A) (A) (A) (A) (A) (A) (A) (A) (A) (A) (A) (A)
                 (A) (A) (A) (A) (A) (A) (A) (A) (A) (A) (A) (A)
                 (A) (A) (A) (A) (A) (A) (A) (A) (A) (A) (A) (A)
                 (A) (A) (A) (A) (A) (A) (A) (A) (A) (A) (A) (A)
                 (A) (A) (A) (A) (A) (A) (A) (A) (A) (A) (A) (A)
                 (A) (A) (A) (A) (A) (A) (A) (A) (A) (A) (A) (A)
                 (A) (A) (A) (A) (A) (A) (A) (A) (A) (A) (A) (A)
                 (A) (A) (A) (A) (A) (A) (A) (A) (A) (A) (A) (A)
                 (A) (A) (A) (A) (A) (A) (A) (A) (A) (A) (A) (A)
                 (A) (A) (A) (A) (A) (A) (A) (A) (A) (A) (A) (A)
                 (A) (A) (A) (A) (A) (A) (A) (A) (A) (A) (A) (A)
                 (A) (A) (A) (A) (A) (A) (A) (A) (A) (A) (A) (A)
                 (A) (A) (A) (A) (A) (A) (A) (A) (A) (A) (A) (A)
                 (A) (A) (A) (A) (A) (A) (A) (A) (A) (A) (A) (A)
                 (A) (A) (A) (A) (A) (A) (A) (A) (A) (A) (A) (A)
                 (A) (A) (A) (A) (A) (A) (A) (A) (A) (A) (A) (A)
                 (A) (A) (A) (A) (A) (A) (A) (A) (A) (A) (A) (A)
                 (A) (A) (A) (A) (A) (A) (A) (A) (A) (A) (A) (A)
                 (A) (A) (A) (A) (A) (A) (A) (A) (A) (A) (A) (A)
                 (A) (A) (A) (A) (A) (A) (A) (A) (A) (A) (A) (A)
                 (A) (A) (A) (A) (A) (A) (A) (A) (A) (A) (A) (A)
                 (A) (A) (A) (A) (A) (A) (A) (A) (A) (A) (A) (A)
                 (A) (A) (A) (A) (A) (A) (A) (A) (A) (A) (A) (A)
                 (A) (A) (A) (A) (A) (A) (A) (A) (A) (A) (A) (A)
                 (A) (A) (A) (A) (A) (A) (A) (A) (A) (A) (A) (A)
                 (A) (A) (A) (A) (A) (A) (A) (A) (A) (A) (A) (A)
                 (A) (A) (A) (A) (A) (A) (A) (A) (A) (A) (A) (A)
                 (A) (A) (A) (A) (A) (A) (A) (A) (A) (A) (A) (A)
                 (A) (A) (A) (A) (A) (A) (A) (A) (A) (A) (A) (A)
                 (A) (A) (A) (A) (A) (A) (A) (A) (A) (A) (A) (A)
                 (A) (A) (A) (A) (A) (A) (A) (A) (A) (A) (A) (A)
                 (A) (A) (A) (A) (A) (A) (A) (A) (A) (A) (A) (A)
                 (A) (A) (A) (A) (A) (A) (A) (A) (A) (A) (A) (A)
                 (A) (A) (A) (A) (A) (A) (A) (A) (A) (A) (A) (A)
                 (A) (A) (A) (A) (A) (A) (A) (A) (A) (A) (A) (A)
                 (A) (A) (A) (A) (A) (A) (A) (A) (A) (A) (A) (A)
                 (A) (A) (A) (A) (A) (A) (A) (A) (A) (A) (A) (A)
                 (A) (A) (A) (A) (A) (A) (A) (A) (A) (A) (A) (A)
                 (A) (A) (A) (A) (A) (A) (A) (A) (A) (A) (A) (A)
                 (A) (A) (A) (A) (A) (A) (A) (A) (A) (A) (A) (A)
                 (A) (A) (A) (A) (A) (A) (A) (A) (A) (A) (A) (A)
                 (A) (A) (A) (A) (A) (A) (A) (A) (A) (A) (A) (A)
                 (A) (A) (A) (A) (A) (A) (A) (A) (A) (A) (A) (A)
                 (A) (A) (A) (A) (A) (A) (A) (A) (A) (A) (A) (A)
                 (A) (A) (A) (A) (A) (A) (A) (A) (A) (A) (A) (A)
                 (A) (A) (A) (A) (A) (A) (A) (A) (A) (A) (A) (A)
                 (A) (A) (A) (A) (A) (A) (A) (A) (A) (A) (A) (A)
                 (A) (A) (A) (A) (A) (A) (A) (A) (A) (A) (A) (A)
                 (A) (A) (A) (A) (A) (A) (A) (A) (A) (A) (A) (A)
                 (A) (A) (A) (A) (A) (A) (A) (A) (A) (A) (A) (A)
                 (A) (A) (A) (A) (A) (A) (A) (A) (A) (A) (A) (A)
                 (A) (A) (A) (A) (A) (A) (A) (A) (A) (A) (A) (A)
                 (A) (A) (A) (A) (A) (A) (A) (A) (A) (A) (A) (A)
                 (A) (A) (A) (A) (A) (A) (A) (A) (A) (A) (A) (A)
                 (A) (A) (A) (A) (A) (A) (A) (A) (A) (A) (A) (A)
                 (A) (A) (A) (A) (A) (A) (A) (A) (A) (A) (A) (A)
                 (A) (A) (A) (A) (A) (A) (A) (A) (A) (A) (A) (A)
                 (A) (A) (A) (A) (A) (A) (A) (A) (A) (A) (A) (A)
                 (A) (A) (A) (A) (A) (A) (A) (A) (A) (A) (A) (A)
                 (A) (A) (A) (A) (A) (A) (A) (A) (A) (A) (A) (A)
                 (A) (A) (A) (A) (A) (A) (A) (A) (A) (A) (A) (A)
                 (A) (A) (A) (A) (A) (A) (A) (A) (A) (A) (A) (A)
                 (A) (A) (A) (A) (A) (A) (A) (A) (A) (A) (A) (A)
                 (A) (A) (A) (A) (A) (A) (A) (A) (A) (A) (A) (A)
                 (A) (A) (A) (A) (A) (A) (A) (A) (A) (A) (A) (A)
                 (A) (A) (A) (A) (A) (A) (A) (A) (A) (A) (A) (A)
                 (A) (A) (A) (A) (A) (A) (A) (A) (A) (A) (A) (A)
                 (A) (A) (A) (A) (A) (A) (A) (A) (A) (A) (A) (A)
                 (A) (A) (A) (A) (A) (A) (A) (A) (A) (A) (A) (A)
                 (A) (A) (A) (A) (A) (A) (A) (A) (A) (A) (A) (A)
                 (A) (A) (A) (A) (A) (A) (A) (A) (A) (A) (A) (A)
                 (A) (A) (A) (A) (A) (A) (A) (A) (A) (A) (A) (A)
                 (A) (A) (A) (A) (A) (A) (A) (A) (A) (A) (A) (A)
                 (A) (A) (A) (A) (A) (A) (A) (A) (A) (A) (A) (A)
                 (A) (A) (A) (A) (A) (A) (A) (A) (A) (A) (A) (A)
                 (A) (A) (A) (A) (A) (A) (A) (A) (A) (A) (A) (A)
                 (A) (A) (A) (A) (A) (A) (A) (A) (A) (A) (A) (A)
                 (A) (A) (A) (A) (A) (A) (A) (A) (A) (A) (A) (A)
                 (A) (A) (A) (A) (A) (A) (A) (A) (A) (A) (A) (A)
                 (A) (A) (A) (A) (A) (A) (A) (A) (A) (A) (A) (A)
                 (A) (A) (A) (A) (A) (A) (A) (A) (A) (A) (A) (A)
                 (A) (A) (A) (A) (A) (A) (A) (A) (A) (A) (A) (A)
                 (A) (A) (A) (A) (A) (A) (A) (A) (A) (A) (A) (A)
                 (A) (A) (A) (A) (A) (A) (A) (A) (A) (A) (A) (A)
                 (A) (A) (A) (A) (A) (A) (A) (A) (A) (A) (A) (A)
                 (A) (A) (A) (A) (A) (A) (A) (A) (A) (A) (A) (A)
                 (A) (A) (A) (A) (A) (A) (A) (A) (A) (A) (A) (A)
                 (A) (A) (A) (A) (A) (A) (A) (A) (A) (A) (A) (A)
                 (A) (A) (A) (A) (A) (A) (A) (A) (A) (A) (A) (A)
                 (A) (A) (A) (A) (A) (A) (A) (A) (A) (A) (A) (A)
                 (A) (A) (A) (A) (A) (A) (A) (A) (A) (A) (A) (A)
                 (A) (A) (A) (A) (A) (A) (A) (A) (A) (A) (A) (A)
                 (A) (A) (A) (A) (A) (A) (A) (A) (A) (A) (A) (A)
                 (A) (A) (A) (A) (A) (A) (A) (A) (A) (A) (A) (A)
                 (A) (A) (A) (A) (A) (A) (A) (A) (A) (A) (A) (A)
                 (A) (A) (A) (A) (A) (A) (A) (A) (A) (A) (A) (A)
                 (A) (A) (A) (A) (A) (A) (A) (A) (A) (A) (A) (A)
                 (A) (A) (A) (A) (A) (A)
    40 initial guesses have been made.
 Convergence on wavefunction:    0.001000000000000
 Iteration     1 Dimension    40 NMult     0 NNew     40
 CISAX will form    40 AO SS matrices at one time.
 New state      4 was old state      5
 New state      5 was old state      4
 New state      6 was old state     10
 New state      7 was old state      6
 New state      8 was old state     13
 New state      9 was old state     22
 New state     10 was old state     14
 Iteration     2 Dimension    60 NMult    40 NNew     20
 New state      7 was old state      8
 New state      8 was old state     10
 New state     10 was old state      7
 Iteration     3 Dimension    80 NMult    60 NNew     20
 Iteration     4 Dimension   100 NMult    80 NNew     20
 Iteration     5 Dimension   120 NMult   100 NNew     20
 Iteration     6 Dimension   136 NMult   120 NNew     16
 Iteration     7 Dimension   146 NMult   136 NNew     10
 Iteration     8 Dimension   152 NMult   146 NNew      6
 Iteration     9 Dimension   158 NMult   152 NNew      6
 Iteration    10 Dimension   162 NMult   158 NNew      4
 Iteration    11 Dimension   166 NMult   162 NNew      4
 Iteration    12 Dimension   170 NMult   166 NNew      4
 Iteration    13 Dimension   174 NMult   170 NNew      4
 Iteration    14 Dimension   178 NMult   174 NNew      4
 Iteration    15 Dimension   182 NMult   178 NNew      4
 Iteration    16 Dimension   186 NMult   182 NNew      4
 Iteration    17 Dimension   190 NMult   186 NNew      4
 Iteration    18 Dimension   192 NMult   190 NNew      2
 Iteration    19 Dimension   194 NMult   192 NNew      2
 Iteration    20 Dimension   196 NMult   194 NNew      2
 Iteration    21 Dimension   198 NMult   196 NNew      2
 ***********************************************************************
 Excited states from <AA,BB:AA,BB> singles matrix:
 ***********************************************************************
 
 Ground to excited state transition densities written to RWF  633
 Ground to excited state transition electric dipole moments (Au):
       state          X           Y           Z        Dip. S.      Osc.
         1        -5.7479      0.2295     -0.1704     33.1206      1.8404
         2        -0.6220     -0.0846      0.2920      0.4792      0.0371
         3         0.1243     -0.7759     -0.3930      0.7719      0.0650
         4         1.9727      0.9352      0.2380      4.8228      0.4351
         5        -0.1944      0.2389      0.1066      0.1062      0.0098
         6        -0.1579     -0.0763      0.4691      0.2509      0.0241
         7         0.1168      1.1357      0.3645      1.4364      0.1449
         8         0.9070      0.0957      0.0187      0.8321      0.0867
         9        -0.2822     -0.2527     -0.0691      0.1483      0.0161
        10        -0.0098      0.9356     -0.0645      0.8795      0.0961
 Ground to excited state transition velocity dipole moments (Au):
       state          X           Y           Z        Dip. S.      Osc.
         1         0.4711     -0.0200      0.0145      0.2226      1.7801
         2         0.0706      0.0111     -0.0337      0.0062      0.0358
         3        -0.0197      0.0983      0.0499      0.0125      0.0662
         4        -0.2634     -0.1286     -0.0333      0.0870      0.4286
         5         0.0250     -0.0314     -0.0143      0.0018      0.0088
         6         0.0226      0.0100     -0.0728      0.0059      0.0273
         7        -0.0168     -0.1650     -0.0528      0.0303      0.1335
         8        -0.1410     -0.0141     -0.0020      0.0201      0.0857
         9         0.0459      0.0377      0.0141      0.0037      0.0152
        10         0.0013     -0.1531      0.0095      0.0235      0.0956
 Ground to excited state transition magnetic dipole moments (Au):
       state          X           Y           Z
         1        -0.0158      0.2097      1.3440
         2         0.1162     -0.5674      0.7982
         3        -0.1204      0.6498     -1.1872
         4         0.0102     -0.2529      0.1020
         5        -0.0026     -0.1717      0.6438
         6        -0.0516      1.3461      1.1202
         7         0.0915     -0.6237      1.9499
         8        -0.1096      0.1755     -0.3147
         9         0.0529     -0.1384     -0.2020
        10        -0.2663      0.0099     -2.5961
 Ground to excited state transition velocity quadrupole moments (Au):
       state          XX          YY          ZZ          XY          XZ          YZ
         1        -4.4497      0.0228     -0.0285     -0.1851     -0.4033     -0.1279
         2         7.9484      0.0850      0.0654      0.8597      0.6939     -0.0898
         3        -3.5527      0.5384     -0.0161     -1.7263     -0.9264      0.2096
         4        -3.2691     -0.6800     -0.0362      0.8950      0.5037     -0.0569
         5        -0.8678     -0.0780      0.0072      0.0418      0.1533      0.0503
         6         0.3354      0.0714      0.0323      0.1493     -1.1903     -0.0318
         7         0.2751     -0.5818      0.0002      2.4144      0.7731     -0.2102
         8        -3.8563     -0.3582     -0.0452     -0.3253     -0.1428      0.2313
         9         0.2650      0.2420      0.0141     -0.2656      0.1810     -0.0173
        10        -0.3734     -0.4398      0.0742     -4.0916     -0.0937     -0.1396
 <0|del|b> * <b|rxdel|0> + <0|del|b> * <b|delr+rdel|0>
 Rotatory Strengths (R) in cgs (10**-40 erg-esu-cm/Gauss)
       state          XX          YY          ZZ    R(velocity)    E-M Angle
         1        19.2101   -193.0965    240.4811     22.1983       89.30
         2      -212.8940     11.9905     48.5861    -50.7725      108.72
         3        26.8220     70.4279    -57.9780     13.0906       87.36
         4       167.5735    101.0490   -130.4033     46.0731       70.82
         5         0.9812    -19.0227     -1.9141     -6.6519       97.88
         6      -164.3718   -177.9025      2.7193   -113.1850      120.94
         7         0.3387     61.9483    -69.4388     -2.3839       90.25
         8        -7.2119    -38.8889    107.7799     20.5597       75.21
         9       -40.3924      5.4898     10.4754     -8.1424      111.60
        10      -170.8529     29.4486     27.3048    -38.0331       93.79
 1/2[<0|r|b>*<b|rxdel|0> + (<0|rxdel|b>*<b|r|0>)*]
 Rotatory Strengths (R) in cgs (10**-40 erg-esu-cm/Gauss)
       state          XX          YY          ZZ     R(length)
         1       -64.2287    -34.0228    161.9976     21.2487
         2        51.0870    -33.9478   -164.8005    -49.2204
         3        10.5871    356.5439   -329.9630     12.3893
         4       -14.1857    167.2694    -17.1772     45.3022
         5        -0.3523     28.9958    -48.5419     -6.6328
         6        -5.7672     72.5874   -371.6502   -101.6100
         7        -7.5605    500.9322   -502.6713     -3.0999
         8        70.3103    -11.8699      4.1593     20.8666
         9        10.5581    -24.7285     -9.8678     -8.0128
        10        -1.8360     -6.5552   -118.3684    -42.2532
  1/2[<0|del|b>*<b|r|0> + (<0|r|b>*<b|del|0>)*] (Au)
       state          X           Y           Z        Dip. S.   Osc.(frdel)
         1        -2.7079     -0.0046     -0.0025      2.7150      1.8100
         2        -0.0439     -0.0009     -0.0098      0.0547      0.0364
         3        -0.0024     -0.0763     -0.0196      0.0983      0.0655
         4        -0.5196     -0.1202     -0.0079      0.6477      0.4318
         5        -0.0049     -0.0075     -0.0015      0.0139      0.0093
         6        -0.0036     -0.0008     -0.0341      0.0385      0.0256
         7        -0.0020     -0.1874     -0.0192      0.2086      0.1391
         8        -0.1279     -0.0013     -0.0000      0.1293      0.0862
         9        -0.0129     -0.0095     -0.0010      0.0234      0.0156
        10        -0.0000     -0.1432     -0.0006      0.1438      0.0959

 Excitation energies and oscillator strengths:
 
 Excited State   1:      Singlet-A      2.2680 eV  546.66 nm  f=1.8404  <S**2>=0.000
     207 -> 209       -0.34623
     208 -> 209        0.58616
 This state for optimization and/or second-order correction.
 Total Energy, E(TD-HF/TD-DFT) =  -3810.82258597    
 Copying the excited state density for this state as the 1-particle RhoCI density.
 
 Excited State   2:      Singlet-A      3.1569 eV  392.74 nm  f=0.0371  <S**2>=0.000
     206 -> 209        0.32641
     207 -> 209        0.49241
     208 -> 209        0.24956
     208 -> 210       -0.18644
     208 -> 211       -0.17676
 
 Excited State   3:      Singlet-A      3.4347 eV  360.98 nm  f=0.0650  <S**2>=0.000
     206 -> 210       -0.15178
     206 -> 211        0.10587
     207 -> 209        0.15928
     207 -> 210       -0.40636
     208 -> 209        0.18036
     208 -> 210        0.46756
 
 Excited State   4:      Singlet-A      3.6826 eV  336.68 nm  f=0.4351  <S**2>=0.000
     206 -> 209        0.13647
     206 -> 210        0.13393
     207 -> 210        0.17583
     207 -> 211       -0.12396
     208 -> 209        0.13479
     208 -> 211        0.57376
 
 Excited State   5:      Singlet-A      3.7553 eV  330.16 nm  f=0.0098  <S**2>=0.000
     203 -> 209       -0.10896
     204 -> 209        0.27165
     206 -> 209        0.49214
     207 -> 209       -0.26511
     207 -> 211        0.15106
     208 -> 209       -0.14523
 
 Excited State   6:      Singlet-A      3.9231 eV  316.04 nm  f=0.0241  <S**2>=0.000
     207 -> 212        0.31477
     208 -> 212        0.58529
 
 Excited State   7:      Singlet-A      4.1174 eV  301.12 nm  f=0.1449  <S**2>=0.000
     202 -> 209        0.52256
     203 -> 209       -0.38949
     206 -> 209       -0.11453
     208 -> 210       -0.10751
 
 Excited State   8:      Singlet-A      4.2506 eV  291.68 nm  f=0.0867  <S**2>=0.000
     207 -> 210        0.19067
     207 -> 211        0.42523
     208 -> 209        0.10530
     208 -> 213        0.24058
     208 -> 214       -0.24953
     208 -> 215       -0.20173
 
 Excited State   9:      Singlet-A      4.4300 eV  279.87 nm  f=0.0161  <S**2>=0.000
     198 -> 209        0.32073
     199 -> 209        0.10077
     200 -> 209        0.13160
     204 -> 209        0.13605
     206 -> 209       -0.10171
     206 -> 210        0.15135
     207 -> 213       -0.25571
     208 -> 210        0.12002
     208 -> 213        0.19893
     208 -> 215        0.20393
 
 Excited State  10:      Singlet-A      4.4614 eV  277.90 nm  f=0.0961  <S**2>=0.000
     207 -> 217        0.28821
     208 -> 215       -0.11945
     208 -> 216       -0.18776
     208 -> 217        0.42800
     208 -> 218       -0.12551
     208 -> 222       -0.10783
     208 -> 223       -0.12149
 SavETr:  write IOETrn=   770 NScale= 10 NData=  16 NLR=1 NState=   10 LETran=     190.

 **********************************************************************

            Population analysis using the SCF Density.

 **********************************************************************

 Orbital symmetries:
       Occupied  (A) (A) (A) (A) (A) (A) (A) (A) (A) (A) (A) (A)
                 (A) (A) (A) (A) (A) (A) (A) (A) (A) (A) (A) (A)
                 (A) (A) (A) (A) (A) (A) (A) (A) (A) (A) (A) (A)
                 (A) (A) (A) (A) (A) (A) (A) (A) (A) (A) (A) (A)
                 (A) (A) (A) (A) (A) (A) (A) (A) (A) (A) (A) (A)
                 (A) (A) (A) (A) (A) (A) (A) (A) (A) (A) (A) (A)
                 (A) (A) (A) (A) (A) (A) (A) (A) (A) (A) (A) (A)
                 (A) (A) (A) (A) (A) (A) (A) (A) (A) (A) (A) (A)
                 (A) (A) (A) (A) (A) (A) (A) (A) (A) (A) (A) (A)
                 (A) (A) (A) (A) (A) (A) (A) (A) (A) (A) (A) (A)
                 (A) (A) (A) (A) (A) (A) (A) (A) (A) (A) (A) (A)
                 (A) (A) (A) (A) (A) (A) (A) (A) (A) (A) (A) (A)
                 (A) (A) (A) (A) (A) (A) (A) (A) (A) (A) (A) (A)
                 (A) (A) (A) (A) (A) (A) (A) (A) (A) (A) (A) (A)
                 (A) (A) (A) (A) (A) (A) (A) (A) (A) (A) (A) (A)
                 (A) (A) (A) (A) (A) (A) (A) (A) (A) (A) (A) (A)
                 (A) (A) (A) (A) (A) (A) (A) (A) (A) (A) (A) (A)
                 (A) (A) (A) (A)
       Virtual   (A) (A) (A) (A) (A) (A) (A) (A) (A) (A) (A) (A)
                 (A) (A) (A) (A) (A) (A) (A) (A) (A) (A) (A) (A)
                 (A) (A) (A) (A) (A) (A) (A) (A) (A) (A) (A) (A)
                 (A) (A) (A) (A) (A) (A) (A) (A) (A) (A) (A) (A)
                 (A) (A) (A) (A) (A) (A) (A) (A) (A) (A) (A) (A)
                 (A) (A) (A) (A) (A) (A) (A) (A) (A) (A) (A) (A)
                 (A) (A) (A) (A) (A) (A) (A) (A) (A) (A) (A) (A)
                 (A) (A) (A) (A) (A) (A) (A) (A) (A) (A) (A) (A)
                 (A) (A) (A) (A) (A) (A) (A) (A) (A) (A) (A) (A)
                 (A) (A) (A) (A) (A) (A) (A) (A) (A) (A) (A) (A)
                 (A) (A) (A) (A) (A) (A) (A) (A) (A) (A) (A) (A)
                 (A) (A) (A) (A) (A) (A) (A) (A) (A) (A) (A) (A)
                 (A) (A) (A) (A) (A) (A) (A) (A) (A) (A) (A) (A)
                 (A) (A) (A) (A) (A) (A) (A) (A) (A) (A) (A) (A)
                 (A) (A) (A) (A) (A) (A) (A) (A) (A) (A) (A) (A)
                 (A) (A) (A) (A) (A) (A) (A) (A) (A) (A) (A) (A)
                 (A) (A) (A) (A) (A) (A) (A) (A) (A) (A) (A) (A)
                 (A) (A) (A) (A) (A) (A) (A) (A) (A) (A) (A) (A)
                 (A) (A) (A) (A) (A) (A) (A) (A) (A) (A) (A) (A)
                 (A) (A) (A) (A) (A) (A) (A) (A) (A) (A) (A) (A)
                 (A) (A) (A) (A) (A) (A) (A) (A) (A) (A) (A) (A)
                 (A) (A) (A) (A) (A) (A) (A) (A) (A) (A) (A) (A)
                 (A) (A) (A) (A) (A) (A) (A) (A) (A) (A) (A) (A)
                 (A) (A) (A) (A) (A) (A) (A) (A) (A) (A) (A) (A)
                 (A) (A) (A) (A) (A) (A) (A) (A) (A) (A) (A) (A)
                 (A) (A) (A) (A) (A) (A) (A) (A) (A) (A) (A) (A)
                 (A) (A) (A) (A) (A) (A) (A) (A) (A) (A) (A) (A)
                 (A) (A) (A) (A) (A) (A) (A) (A) (A) (A) (A) (A)
                 (A) (A) (A) (A) (A) (A) (A) (A) (A) (A) (A) (A)
                 (A) (A) (A) (A) (A) (A) (A) (A) (A) (A) (A) (A)
                 (A) (A) (A) (A) (A) (A) (A) (A) (A) (A) (A) (A)
                 (A) (A) (A) (A) (A) (A) (A) (A) (A) (A) (A) (A)
                 (A) (A) (A) (A) (A) (A) (A) (A) (A) (A) (A) (A)
                 (A) (A) (A) (A) (A) (A) (A) (A) (A) (A) (A) (A)
                 (A) (A) (A) (A) (A) (A) (A) (A) (A) (A) (A) (A)
                 (A) (A) (A) (A) (A) (A) (A) (A) (A) (A) (A) (A)
                 (A) (A) (A) (A) (A) (A) (A) (A) (A) (A) (A) (A)
                 (A) (A) (A) (A) (A) (A) (A) (A) (A) (A) (A) (A)
                 (A) (A) (A) (A) (A) (A) (A) (A) (A) (A) (A) (A)
                 (A) (A) (A) (A) (A) (A) (A) (A) (A) (A) (A) (A)
                 (A) (A) (A) (A) (A) (A) (A) (A) (A) (A) (A) (A)
                 (A) (A) (A) (A) (A) (A) (A) (A) (A) (A) (A) (A)
                 (A) (A) (A) (A) (A) (A) (A) (A) (A) (A) (A) (A)
                 (A) (A) (A) (A) (A) (A) (A) (A) (A) (A) (A) (A)
                 (A) (A) (A) (A) (A) (A) (A) (A) (A) (A) (A) (A)
                 (A) (A) (A) (A) (A) (A) (A) (A) (A) (A) (A) (A)
                 (A) (A) (A) (A) (A) (A) (A) (A) (A) (A) (A) (A)
                 (A) (A) (A) (A) (A) (A) (A) (A) (A) (A) (A) (A)
                 (A) (A) (A) (A) (A) (A) (A) (A) (A) (A) (A) (A)
                 (A) (A) (A) (A) (A) (A) (A) (A) (A) (A) (A) (A)
                 (A) (A) (A) (A) (A) (A) (A) (A) (A) (A) (A) (A)
                 (A) (A) (A) (A) (A) (A) (A) (A) (A) (A) (A) (A)
                 (A) (A) (A) (A) (A) (A) (A) (A) (A) (A) (A) (A)
                 (A) (A) (A) (A) (A) (A) (A) (A) (A) (A) (A) (A)
                 (A) (A) (A) (A) (A) (A) (A) (A) (A) (A) (A) (A)
                 (A) (A) (A) (A) (A) (A) (A) (A) (A) (A) (A) (A)
                 (A) (A) (A) (A) (A) (A) (A) (A) (A) (A) (A) (A)
                 (A) (A) (A) (A) (A) (A) (A) (A) (A) (A) (A) (A)
                 (A) (A) (A) (A) (A) (A) (A) (A) (A) (A) (A) (A)
                 (A) (A) (A) (A) (A) (A) (A) (A) (A) (A) (A) (A)
                 (A) (A) (A) (A) (A) (A) (A) (A) (A) (A) (A) (A)
                 (A) (A) (A) (A) (A) (A) (A) (A) (A) (A) (A) (A)
                 (A) (A) (A) (A) (A) (A) (A) (A) (A) (A) (A) (A)
                 (A) (A) (A) (A) (A) (A) (A) (A) (A) (A) (A) (A)
                 (A) (A) (A) (A) (A) (A) (A) (A) (A) (A) (A) (A)
                 (A) (A) (A) (A) (A) (A) (A) (A) (A) (A) (A) (A)
                 (A) (A) (A) (A) (A) (A) (A) (A) (A) (A) (A) (A)
                 (A) (A) (A) (A) (A) (A) (A) (A) (A) (A) (A) (A)
                 (A) (A) (A) (A) (A) (A) (A) (A) (A) (A) (A) (A)
                 (A) (A) (A) (A) (A) (A) (A) (A) (A) (A) (A) (A)
                 (A) (A) (A) (A) (A) (A) (A) (A) (A) (A) (A) (A)
                 (A) (A) (A) (A) (A) (A) (A) (A) (A) (A) (A) (A)
                 (A) (A) (A) (A) (A) (A) (A) (A) (A) (A) (A) (A)
                 (A) (A) (A) (A) (A) (A) (A) (A) (A) (A) (A) (A)
                 (A) (A) (A) (A) (A) (A) (A) (A) (A) (A) (A) (A)
                 (A) (A) (A) (A) (A) (A) (A) (A) (A) (A) (A) (A)
                 (A) (A) (A) (A) (A) (A) (A) (A) (A) (A) (A) (A)
                 (A) (A) (A) (A) (A) (A) (A) (A) (A) (A) (A) (A)
                 (A) (A) (A) (A) (A) (A) (A) (A) (A) (A) (A) (A)
                 (A) (A) (A) (A) (A) (A) (A) (A) (A) (A) (A) (A)
                 (A) (A) (A) (A) (A) (A) (A) (A) (A) (A) (A) (A)
                 (A) (A) (A) (A) (A) (A) (A) (A) (A) (A) (A) (A)
                 (A) (A) (A) (A) (A) (A) (A) (A) (A) (A) (A) (A)
                 (A) (A) (A) (A) (A) (A) (A) (A) (A) (A) (A) (A)
                 (A) (A) (A) (A) (A) (A) (A) (A) (A) (A) (A) (A)
                 (A) (A) (A) (A) (A) (A) (A) (A) (A) (A) (A) (A)
                 (A) (A) (A) (A) (A) (A) (A) (A) (A) (A) (A) (A)
                 (A) (A) (A) (A) (A) (A) (A) (A) (A) (A) (A) (A)
                 (A) (A) (A) (A) (A) (A) (A) (A) (A) (A) (A) (A)
                 (A) (A) (A) (A) (A) (A) (A) (A) (A) (A) (A) (A)
                 (A) (A) (A) (A) (A) (A) (A) (A) (A) (A) (A) (A)
                 (A) (A) (A) (A) (A) (A) (A) (A) (A) (A) (A) (A)
                 (A) (A) (A) (A) (A) (A) (A) (A) (A) (A) (A) (A)
                 (A) (A) (A) (A) (A) (A) (A) (A) (A) (A) (A) (A)
                 (A) (A) (A) (A) (A) (A) (A) (A) (A) (A) (A) (A)
                 (A) (A) (A) (A) (A) (A) (A) (A) (A) (A) (A) (A)
                 (A) (A) (A) (A) (A) (A) (A) (A) (A) (A) (A) (A)
                 (A) (A) (A) (A) (A) (A) (A) (A) (A) (A) (A) (A)
                 (A) (A) (A) (A) (A) (A) (A) (A) (A) (A) (A) (A)
                 (A) (A) (A) (A) (A) (A) (A) (A) (A) (A) (A) (A)
                 (A) (A) (A) (A) (A) (A)
 The electronic state is 1-A.
 Alpha  occ. eigenvalues --  -88.98132 -88.97732 -88.96649 -88.96503 -19.25564
 Alpha  occ. eigenvalues --  -19.25096 -19.23696 -19.23547 -19.19739 -19.18968
 Alpha  occ. eigenvalues --  -14.42366 -14.38792 -10.39872 -10.39592 -10.33724
 Alpha  occ. eigenvalues --  -10.32100 -10.32054 -10.31982 -10.31972 -10.31720
 Alpha  occ. eigenvalues --  -10.31514 -10.31237 -10.30984 -10.30920 -10.30740
 Alpha  occ. eigenvalues --  -10.30650 -10.30635 -10.30619 -10.30398 -10.29756
 Alpha  occ. eigenvalues --  -10.29752 -10.29500 -10.29405 -10.29313 -10.28616
 Alpha  occ. eigenvalues --  -10.28578 -10.28548 -10.27463 -10.27247 -10.27226
 Alpha  occ. eigenvalues --  -10.26688 -10.26403 -10.26352 -10.26289 -10.26149
 Alpha  occ. eigenvalues --  -10.26138 -10.26129 -10.26075 -10.25979 -10.25674
 Alpha  occ. eigenvalues --  -10.25664 -10.25643 -10.25637 -10.25578 -10.25577
 Alpha  occ. eigenvalues --   -8.07006  -8.06568  -8.05456  -8.05349  -6.03424
 Alpha  occ. eigenvalues --   -6.03011  -6.02977  -6.02631  -6.02588  -6.02195
 Alpha  occ. eigenvalues --   -6.01899  -6.01758  -6.01484  -6.01368  -6.01024
 Alpha  occ. eigenvalues --   -6.00979  -1.20697  -1.19717  -1.16252  -1.16106
 Alpha  occ. eigenvalues --   -1.11731  -1.11578  -1.06119  -1.03021  -1.02037
 Alpha  occ. eigenvalues --   -0.99460  -0.98551  -0.96476  -0.95833  -0.95550
 Alpha  occ. eigenvalues --   -0.94203  -0.93371  -0.92355  -0.88853  -0.87469
 Alpha  occ. eigenvalues --   -0.86095  -0.86013  -0.85536  -0.84769  -0.84682
 Alpha  occ. eigenvalues --   -0.84395  -0.84033  -0.83127  -0.82836  -0.82245
 Alpha  occ. eigenvalues --   -0.81243  -0.79416  -0.79326  -0.78967  -0.77561
 Alpha  occ. eigenvalues --   -0.75145  -0.73120  -0.71907  -0.71735  -0.71148
 Alpha  occ. eigenvalues --   -0.71028  -0.70425  -0.70105  -0.68832  -0.68317
 Alpha  occ. eigenvalues --   -0.66732  -0.65990  -0.64915  -0.64698  -0.63903
 Alpha  occ. eigenvalues --   -0.63578  -0.63010  -0.62819  -0.62612  -0.61604
 Alpha  occ. eigenvalues --   -0.60853  -0.59830  -0.59192  -0.57988  -0.57727
 Alpha  occ. eigenvalues --   -0.57257  -0.57120  -0.56585  -0.56255  -0.55490
 Alpha  occ. eigenvalues --   -0.55389  -0.55319  -0.54975  -0.54430  -0.53987
 Alpha  occ. eigenvalues --   -0.53356  -0.53193  -0.53147  -0.52974  -0.52619
 Alpha  occ. eigenvalues --   -0.52162  -0.51929  -0.51705  -0.51046  -0.50917
 Alpha  occ. eigenvalues --   -0.50745  -0.50557  -0.50424  -0.50182  -0.49650
 Alpha  occ. eigenvalues --   -0.49635  -0.49036  -0.48898  -0.48468  -0.48284
 Alpha  occ. eigenvalues --   -0.48032  -0.47692  -0.47463  -0.46924  -0.46743
 Alpha  occ. eigenvalues --   -0.46511  -0.46408  -0.46256  -0.45815  -0.45513
 Alpha  occ. eigenvalues --   -0.45206  -0.44751  -0.44462  -0.44248  -0.44098
 Alpha  occ. eigenvalues --   -0.43821  -0.43565  -0.43320  -0.43153  -0.42544
 Alpha  occ. eigenvalues --   -0.42124  -0.41792  -0.41393  -0.41243  -0.40719
 Alpha  occ. eigenvalues --   -0.40596  -0.40520  -0.40407  -0.40251  -0.39811
 Alpha  occ. eigenvalues --   -0.39661  -0.38669  -0.37898  -0.36508  -0.35869
 Alpha  occ. eigenvalues --   -0.35168  -0.34011  -0.33595  -0.33240  -0.32579
 Alpha  occ. eigenvalues --   -0.32518  -0.32297  -0.32214  -0.31322  -0.29784
 Alpha  occ. eigenvalues --   -0.28516  -0.25220  -0.22973
 Alpha virt. eigenvalues --   -0.08715  -0.04414  -0.02561   0.00056   0.00543
 Alpha virt. eigenvalues --    0.00806   0.01234   0.01713   0.01875   0.02204
 Alpha virt. eigenvalues --    0.02270   0.02489   0.02569   0.02578   0.02879
 Alpha virt. eigenvalues --    0.03033   0.03309   0.03514   0.03690   0.03805
 Alpha virt. eigenvalues --    0.04076   0.04127   0.04354   0.04553   0.04756
 Alpha virt. eigenvalues --    0.04818   0.04872   0.05308   0.05318   0.05467
 Alpha virt. eigenvalues --    0.05676   0.05759   0.05856   0.06144   0.06199
 Alpha virt. eigenvalues --    0.06361   0.06577   0.06636   0.06739   0.06923
 Alpha virt. eigenvalues --    0.07121   0.07202   0.07367   0.07473   0.07560
 Alpha virt. eigenvalues --    0.07673   0.07820   0.07985   0.08073   0.08318
 Alpha virt. eigenvalues --    0.08548   0.08792   0.08932   0.09050   0.09184
 Alpha virt. eigenvalues --    0.09338   0.09508   0.09550   0.09769   0.09826
 Alpha virt. eigenvalues --    0.09964   0.10321   0.10419   0.10525   0.10687
 Alpha virt. eigenvalues --    0.10995   0.11181   0.11499   0.11760   0.11846
 Alpha virt. eigenvalues --    0.11960   0.12105   0.12285   0.12323   0.12657
 Alpha virt. eigenvalues --    0.12725   0.12930   0.13142   0.13240   0.13343
 Alpha virt. eigenvalues --    0.13462   0.13545   0.13819   0.13981   0.14230
 Alpha virt. eigenvalues --    0.14261   0.14367   0.14567   0.14779   0.14818
 Alpha virt. eigenvalues --    0.14892   0.15142   0.15349   0.15514   0.15762
 Alpha virt. eigenvalues --    0.15807   0.16005   0.16320   0.16416   0.16504
 Alpha virt. eigenvalues --    0.16642   0.16893   0.17031   0.17082   0.17168
 Alpha virt. eigenvalues --    0.17447   0.17579   0.17711   0.17751   0.17834
 Alpha virt. eigenvalues --    0.18002   0.18226   0.18317   0.18467   0.18644
 Alpha virt. eigenvalues --    0.18677   0.18871   0.19133   0.19156   0.19333
 Alpha virt. eigenvalues --    0.19431   0.19561   0.19741   0.19845   0.20143
 Alpha virt. eigenvalues --    0.20226   0.20248   0.20375   0.20490   0.20696
 Alpha virt. eigenvalues --    0.20940   0.20997   0.21024   0.21224   0.21445
 Alpha virt. eigenvalues --    0.21532   0.21676   0.21835   0.22003   0.22095
 Alpha virt. eigenvalues --    0.22258   0.22372   0.22412   0.22609   0.22682
 Alpha virt. eigenvalues --    0.22796   0.22922   0.23033   0.23106   0.23338
 Alpha virt. eigenvalues --    0.23507   0.23617   0.23676   0.23801   0.23835
 Alpha virt. eigenvalues --    0.23957   0.24129   0.24282   0.24334   0.24375
 Alpha virt. eigenvalues --    0.24491   0.24679   0.24789   0.24799   0.24957
 Alpha virt. eigenvalues --    0.25021   0.25172   0.25300   0.25477   0.25611
 Alpha virt. eigenvalues --    0.25858   0.25942   0.26077   0.26162   0.26209
 Alpha virt. eigenvalues --    0.26357   0.26476   0.26710   0.26869   0.26941
 Alpha virt. eigenvalues --    0.27033   0.27276   0.27323   0.27611   0.27668
 Alpha virt. eigenvalues --    0.27823   0.27895   0.27949   0.28158   0.28451
 Alpha virt. eigenvalues --    0.28467   0.28845   0.28914   0.29034   0.29083
 Alpha virt. eigenvalues --    0.29416   0.29505   0.29540   0.29805   0.29893
 Alpha virt. eigenvalues --    0.29995   0.30080   0.30253   0.30353   0.30454
 Alpha virt. eigenvalues --    0.30555   0.30602   0.30828   0.30906   0.31069
 Alpha virt. eigenvalues --    0.31244   0.31445   0.31468   0.31652   0.31834
 Alpha virt. eigenvalues --    0.32006   0.32110   0.32296   0.32392   0.32538
 Alpha virt. eigenvalues --    0.32746   0.32768   0.32949   0.33125   0.33269
 Alpha virt. eigenvalues --    0.33283   0.33416   0.33561   0.33697   0.33889
 Alpha virt. eigenvalues --    0.34148   0.34275   0.34407   0.34531   0.34693
 Alpha virt. eigenvalues --    0.34848   0.35051   0.35152   0.35233   0.35429
 Alpha virt. eigenvalues --    0.35589   0.35791   0.35855   0.35995   0.36156
 Alpha virt. eigenvalues --    0.36367   0.36563   0.36761   0.36772   0.36996
 Alpha virt. eigenvalues --    0.37281   0.37443   0.37544   0.37655   0.37697
 Alpha virt. eigenvalues --    0.37837   0.38071   0.38171   0.38415   0.38633
 Alpha virt. eigenvalues --    0.38874   0.38922   0.39167   0.39434   0.39836
 Alpha virt. eigenvalues --    0.39903   0.40156   0.40246   0.40546   0.40708
 Alpha virt. eigenvalues --    0.41201   0.41347   0.41421   0.41471   0.41668
 Alpha virt. eigenvalues --    0.41896   0.42104   0.42442   0.42619   0.42703
 Alpha virt. eigenvalues --    0.42896   0.43140   0.43478   0.43701   0.44058
 Alpha virt. eigenvalues --    0.44269   0.44392   0.44728   0.45019   0.45185
 Alpha virt. eigenvalues --    0.45275   0.45490   0.45847   0.45889   0.46696
 Alpha virt. eigenvalues --    0.46936   0.46956   0.47816   0.47924   0.48180
 Alpha virt. eigenvalues --    0.48504   0.48578   0.48681   0.48941   0.48979
 Alpha virt. eigenvalues --    0.49241   0.49778   0.49941   0.50275   0.50484
 Alpha virt. eigenvalues --    0.50767   0.51130   0.52032   0.52503   0.52792
 Alpha virt. eigenvalues --    0.53089   0.53415   0.53518   0.53950   0.54489
 Alpha virt. eigenvalues --    0.54639   0.54701   0.55495   0.55934   0.56067
 Alpha virt. eigenvalues --    0.56413   0.56959   0.57166   0.57339   0.57860
 Alpha virt. eigenvalues --    0.58323   0.58509   0.58793   0.58998   0.59224
 Alpha virt. eigenvalues --    0.59432   0.59669   0.59681   0.59908   0.60137
 Alpha virt. eigenvalues --    0.60418   0.60555   0.60928   0.61144   0.61553
 Alpha virt. eigenvalues --    0.61776   0.62070   0.62602   0.62727   0.63137
 Alpha virt. eigenvalues --    0.63459   0.63578   0.63966   0.64079   0.64306
 Alpha virt. eigenvalues --    0.64685   0.64920   0.65068   0.65233   0.65278
 Alpha virt. eigenvalues --    0.65712   0.65895   0.66131   0.66286   0.66370
 Alpha virt. eigenvalues --    0.66617   0.66761   0.67287   0.67423   0.67671
 Alpha virt. eigenvalues --    0.67926   0.68116   0.68273   0.68499   0.68664
 Alpha virt. eigenvalues --    0.68700   0.69020   0.69115   0.69382   0.69868
 Alpha virt. eigenvalues --    0.70097   0.70137   0.70360   0.70582   0.70975
 Alpha virt. eigenvalues --    0.71025   0.71233   0.71367   0.71770   0.71909
 Alpha virt. eigenvalues --    0.72149   0.72304   0.72633   0.72872   0.73041
 Alpha virt. eigenvalues --    0.73051   0.73322   0.73499   0.73828   0.73976
 Alpha virt. eigenvalues --    0.74054   0.74148   0.74311   0.74590   0.74842
 Alpha virt. eigenvalues --    0.74976   0.75161   0.75488   0.75789   0.75945
 Alpha virt. eigenvalues --    0.76503   0.76739   0.76838   0.77062   0.77224
 Alpha virt. eigenvalues --    0.77530   0.77566   0.77841   0.78181   0.78301
 Alpha virt. eigenvalues --    0.78399   0.78602   0.78896   0.79143   0.79364
 Alpha virt. eigenvalues --    0.79523   0.79547   0.79891   0.80276   0.80341
 Alpha virt. eigenvalues --    0.80541   0.80665   0.80765   0.81059   0.81369
 Alpha virt. eigenvalues --    0.81477   0.81838   0.81956   0.82475   0.82586
 Alpha virt. eigenvalues --    0.83017   0.83082   0.83218   0.83513   0.83867
 Alpha virt. eigenvalues --    0.84195   0.84357   0.84630   0.84877   0.84934
 Alpha virt. eigenvalues --    0.85319   0.85640   0.85831   0.86152   0.86452
 Alpha virt. eigenvalues --    0.86712   0.87177   0.87462   0.87576   0.87837
 Alpha virt. eigenvalues --    0.88116   0.89067   0.89354   0.89600   0.90130
 Alpha virt. eigenvalues --    0.90369   0.90743   0.90978   0.91372   0.91494
 Alpha virt. eigenvalues --    0.91680   0.92012   0.92506   0.92564   0.92932
 Alpha virt. eigenvalues --    0.93313   0.93522   0.93657   0.94066   0.94225
 Alpha virt. eigenvalues --    0.94539   0.94779   0.95134   0.95229   0.95437
 Alpha virt. eigenvalues --    0.95705   0.96169   0.96553   0.96707   0.96936
 Alpha virt. eigenvalues --    0.97131   0.97433   0.97636   0.97946   0.98201
 Alpha virt. eigenvalues --    0.98529   0.98643   0.98911   0.99067   0.99391
 Alpha virt. eigenvalues --    0.99530   0.99727   1.00323   1.00474   1.00786
 Alpha virt. eigenvalues --    1.01088   1.01402   1.01962   1.02115   1.02307
 Alpha virt. eigenvalues --    1.02851   1.02984   1.03169   1.03507   1.04112
 Alpha virt. eigenvalues --    1.04310   1.04565   1.05286   1.05465   1.05594
 Alpha virt. eigenvalues --    1.05827   1.06094   1.06342   1.06608   1.06925
 Alpha virt. eigenvalues --    1.07094   1.07273   1.07662   1.07799   1.08050
 Alpha virt. eigenvalues --    1.08535   1.08957   1.08988   1.09310   1.09764
 Alpha virt. eigenvalues --    1.09874   1.10144   1.10341   1.10540   1.11004
 Alpha virt. eigenvalues --    1.11335   1.11481   1.11928   1.12193   1.12273
 Alpha virt. eigenvalues --    1.12992   1.13338   1.13608   1.14012   1.14295
 Alpha virt. eigenvalues --    1.14790   1.14920   1.15203   1.15900   1.16299
 Alpha virt. eigenvalues --    1.16535   1.16831   1.17185   1.17317   1.17366
 Alpha virt. eigenvalues --    1.17590   1.18038   1.18370   1.18890   1.19331
 Alpha virt. eigenvalues --    1.19464   1.19713   1.20166   1.20505   1.20976
 Alpha virt. eigenvalues --    1.21394   1.21860   1.22273   1.22415   1.22775
 Alpha virt. eigenvalues --    1.23086   1.23470   1.24187   1.24360   1.24809
 Alpha virt. eigenvalues --    1.25011   1.25521   1.26110   1.26927   1.27083
 Alpha virt. eigenvalues --    1.27541   1.28228   1.29789   1.30449   1.30977
 Alpha virt. eigenvalues --    1.31343   1.31811   1.32311   1.32477   1.32828
 Alpha virt. eigenvalues --    1.33035   1.33643   1.33719   1.34373   1.34800
 Alpha virt. eigenvalues --    1.34954   1.35235   1.35270   1.35752   1.36805
 Alpha virt. eigenvalues --    1.37549   1.37723   1.38547   1.39995   1.40424
 Alpha virt. eigenvalues --    1.41073   1.41485   1.43019   1.44139   1.44367
 Alpha virt. eigenvalues --    1.44840   1.45202   1.45311   1.45739   1.45945
 Alpha virt. eigenvalues --    1.46759   1.47679   1.48037   1.48193   1.49567
 Alpha virt. eigenvalues --    1.49723   1.50044   1.50122   1.50758   1.51293
 Alpha virt. eigenvalues --    1.52091   1.52314   1.52615   1.53586   1.53922
 Alpha virt. eigenvalues --    1.54422   1.54723   1.55233   1.55276   1.56097
 Alpha virt. eigenvalues --    1.56363   1.56610   1.57083   1.57508   1.58143
 Alpha virt. eigenvalues --    1.58480   1.58896   1.59035   1.59211   1.59719
 Alpha virt. eigenvalues --    1.59838   1.59922   1.60281   1.60701   1.61085
 Alpha virt. eigenvalues --    1.61273   1.61558   1.61889   1.62565   1.62928
 Alpha virt. eigenvalues --    1.63243   1.63665   1.63845   1.64330   1.64664
 Alpha virt. eigenvalues --    1.65245   1.65298   1.65767   1.66049   1.66483
 Alpha virt. eigenvalues --    1.66579   1.67049   1.67241   1.67538   1.67893
 Alpha virt. eigenvalues --    1.67914   1.68226   1.68348   1.68818   1.69306
 Alpha virt. eigenvalues --    1.69771   1.70502   1.70788   1.71179   1.71387
 Alpha virt. eigenvalues --    1.71532   1.71933   1.72352   1.72520   1.72993
 Alpha virt. eigenvalues --    1.73332   1.73548   1.74055   1.74574   1.74927
 Alpha virt. eigenvalues --    1.75211   1.75454   1.75681   1.75822   1.75882
 Alpha virt. eigenvalues --    1.76400   1.76611   1.76715   1.76774   1.77136
 Alpha virt. eigenvalues --    1.77345   1.77851   1.78126   1.78328   1.78515
 Alpha virt. eigenvalues --    1.78874   1.79508   1.79662   1.80100   1.80811
 Alpha virt. eigenvalues --    1.81191   1.81639   1.82155   1.82593   1.83044
 Alpha virt. eigenvalues --    1.83639   1.83806   1.84037   1.84484   1.84626
 Alpha virt. eigenvalues --    1.85105   1.85283   1.85443   1.85903   1.86813
 Alpha virt. eigenvalues --    1.86899   1.87616   1.88725   1.89261   1.89644
 Alpha virt. eigenvalues --    1.90046   1.90224   1.90363   1.90628   1.90925
 Alpha virt. eigenvalues --    1.91385   1.91628   1.91917   1.92320   1.93236
 Alpha virt. eigenvalues --    1.94390   1.94703   1.95196   1.95672   1.95807
 Alpha virt. eigenvalues --    1.96556   1.96810   1.97077   1.98021   1.98094
 Alpha virt. eigenvalues --    1.98430   1.98729   1.99397   1.99782   1.99870
 Alpha virt. eigenvalues --    2.00331   2.00587   2.00917   2.01008   2.01519
 Alpha virt. eigenvalues --    2.01790   2.01970   2.02165   2.02328   2.02893
 Alpha virt. eigenvalues --    2.03083   2.03640   2.03826   2.04582   2.05307
 Alpha virt. eigenvalues --    2.05483   2.05944   2.06395   2.06606   2.07434
 Alpha virt. eigenvalues --    2.07747   2.08273   2.08933   2.09226   2.09700
 Alpha virt. eigenvalues --    2.10329   2.11173   2.11669   2.11998   2.12382
 Alpha virt. eigenvalues --    2.12640   2.12677   2.13448   2.14189   2.14235
 Alpha virt. eigenvalues --    2.14783   2.14947   2.15166   2.15641   2.15691
 Alpha virt. eigenvalues --    2.16112   2.16336   2.16607   2.17073   2.17266
 Alpha virt. eigenvalues --    2.17456   2.17827   2.17867   2.18297   2.18675
 Alpha virt. eigenvalues --    2.18978   2.19642   2.19809   2.20267   2.20457
 Alpha virt. eigenvalues --    2.20843   2.20945   2.21325   2.21888   2.22503
 Alpha virt. eigenvalues --    2.22830   2.23503   2.24217   2.24385   2.25086
 Alpha virt. eigenvalues --    2.26193   2.26441   2.27502   2.27556   2.27787
 Alpha virt. eigenvalues --    2.28352   2.28474   2.28877   2.30919   2.32099
 Alpha virt. eigenvalues --    2.32736   2.34286   2.34546   2.35089   2.35818
 Alpha virt. eigenvalues --    2.36541   2.37916   2.38977   2.39158   2.39570
 Alpha virt. eigenvalues --    2.40162   2.41528   2.41619   2.42632   2.44089
 Alpha virt. eigenvalues --    2.45162   2.45766   2.46622   2.47192   2.47992
 Alpha virt. eigenvalues --    2.48436   2.48727   2.49546   2.49764   2.49899
 Alpha virt. eigenvalues --    2.50127   2.50241   2.50660   2.50839   2.51727
 Alpha virt. eigenvalues --    2.52120   2.52584   2.53778   2.54150   2.54215
 Alpha virt. eigenvalues --    2.54571   2.55746   2.57667   2.57750   2.58021
 Alpha virt. eigenvalues --    2.58687   2.59108   2.59402   2.60372   2.60532
 Alpha virt. eigenvalues --    2.60770   2.60880   2.61279   2.61874   2.62428
 Alpha virt. eigenvalues --    2.63397   2.63966   2.65087   2.66130   2.66620
 Alpha virt. eigenvalues --    2.67317   2.67638   2.68169   2.69145   2.69370
 Alpha virt. eigenvalues --    2.69989   2.70048   2.70385   2.70740   2.71208
 Alpha virt. eigenvalues --    2.71728   2.72394   2.73407   2.73885   2.74391
 Alpha virt. eigenvalues --    2.74964   2.75375   2.76005   2.76164   2.76463
 Alpha virt. eigenvalues --    2.76753   2.77223   2.77850   2.78366   2.78872
 Alpha virt. eigenvalues --    2.79422   2.79550   2.79897   2.80496   2.80855
 Alpha virt. eigenvalues --    2.81407   2.81853   2.82095   2.82509   2.82700
 Alpha virt. eigenvalues --    2.83704   2.83838   2.83985   2.84783   2.84910
 Alpha virt. eigenvalues --    2.85181   2.86282   2.86656   2.87625   2.87840
 Alpha virt. eigenvalues --    2.87992   2.88582   2.88621   2.88742   2.89127
 Alpha virt. eigenvalues --    2.89345   2.90251   2.90667   2.91168   2.91593
 Alpha virt. eigenvalues --    2.91763   2.92114   2.92853   2.93471   2.93813
 Alpha virt. eigenvalues --    2.94216   2.94768   2.95203   2.95920   2.96925
 Alpha virt. eigenvalues --    2.97444   2.97642   2.98357   2.98714   2.98932
 Alpha virt. eigenvalues --    2.99674   3.00034   3.00683   3.01412   3.01470
 Alpha virt. eigenvalues --    3.01955   3.02022   3.02325   3.02358   3.02531
 Alpha virt. eigenvalues --    3.03367   3.03887   3.04495   3.05069   3.05488
 Alpha virt. eigenvalues --    3.06358   3.06621   3.06961   3.07527   3.08577
 Alpha virt. eigenvalues --    3.09395   3.10222   3.10782   3.11186   3.11601
 Alpha virt. eigenvalues --    3.11722   3.11913   3.12062   3.12729   3.12960
 Alpha virt. eigenvalues --    3.13641   3.13903   3.14642   3.16709   3.17039
 Alpha virt. eigenvalues --    3.17160   3.17835   3.17860   3.18172   3.19604
 Alpha virt. eigenvalues --    3.19947   3.20937   3.21829   3.21949   3.23945
 Alpha virt. eigenvalues --    3.26207   3.26686   3.27159   3.27332   3.27858
 Alpha virt. eigenvalues --    3.28138   3.28367   3.28669   3.29094   3.30055
 Alpha virt. eigenvalues --    3.31625   3.31851   3.32159   3.32672   3.33588
 Alpha virt. eigenvalues --    3.33816   3.36618   3.37309   3.38801   3.40196
 Alpha virt. eigenvalues --    3.40786   3.42147   3.43769   3.44069   3.44698
 Alpha virt. eigenvalues --    3.45029   3.45812   3.46696   3.46978   3.47896
 Alpha virt. eigenvalues --    3.47979   3.48177   3.49746   3.52328   3.55116
 Alpha virt. eigenvalues --    3.56714   3.57644   3.58701   3.58964   3.59672
 Alpha virt. eigenvalues --    3.60516   3.61451   3.61724   3.64395   3.65098
 Alpha virt. eigenvalues --    3.65952   3.67211   3.67510   3.67682   3.69274
 Alpha virt. eigenvalues --    3.69581   3.70353   3.71621   3.71687   3.74998
 Alpha virt. eigenvalues --    3.77295   3.81217   3.83569   3.83770   3.83782
 Alpha virt. eigenvalues --    3.84020   3.84315   3.85486   3.87725   3.88434
 Alpha virt. eigenvalues --    3.89219   3.90523   3.90982   3.92083   3.92531
 Alpha virt. eigenvalues --    3.93927   3.95379   3.97036   3.97563   4.06361
 Alpha virt. eigenvalues --    4.07040   4.07687   4.08065   4.09407   4.11347
 Alpha virt. eigenvalues --    4.12167   4.15095   4.15356   4.15905   4.16194
 Alpha virt. eigenvalues --    4.16660   4.18170   4.21847   4.22723   4.23258
 Alpha virt. eigenvalues --    4.23892   4.24207   4.25261   4.26694   4.27094
 Alpha virt. eigenvalues --    4.28368   4.30975   4.31656   4.32191   4.37183
 Alpha virt. eigenvalues --    4.38372   4.43438   4.61047   4.61495   4.65849
 Alpha virt. eigenvalues --    4.70807   4.76696   4.92046   4.92746   4.93208
 Alpha virt. eigenvalues --    5.04533   5.06906   5.09313   5.09567   5.11965
 Alpha virt. eigenvalues --    5.13427   5.13667   5.21862   5.24118   5.29054
 Alpha virt. eigenvalues --    5.44037   5.44888   5.46508   5.46761   5.66331
 Alpha virt. eigenvalues --    5.72761   5.85672   5.86111   5.92153   5.93166
 Alpha virt. eigenvalues --    8.05787   8.08581   8.10824   8.12336  17.34318
 Alpha virt. eigenvalues --   17.35542  17.37440  17.37542  17.55751  17.57567
 Alpha virt. eigenvalues --   17.60254  17.62982  17.63436  17.64521  17.68071
 Alpha virt. eigenvalues --   17.71063  23.50523  23.59247  23.65819  23.71039
 Alpha virt. eigenvalues --   23.73050  23.75244  23.79736  23.83468  23.86408
 Alpha virt. eigenvalues --   23.88371  23.90144  23.92402  23.93658  23.96190
 Alpha virt. eigenvalues --   23.96336  23.97189  23.97794  24.00271  24.00353
 Alpha virt. eigenvalues --   24.01085  24.01478  24.02121  24.03258  24.04519
 Alpha virt. eigenvalues --   24.05292  24.07613  24.08155  24.08940  24.09763
 Alpha virt. eigenvalues --   24.10296  24.10996  24.11515  24.16573  24.17096
 Alpha virt. eigenvalues --   24.17241  24.17348  24.18290  24.18892  24.20015
 Alpha virt. eigenvalues --   24.24248  24.24573  24.24888  24.54223  35.72360
 Alpha virt. eigenvalues --   35.95023  49.90603  49.94181  50.00368  50.00536
 Alpha virt. eigenvalues --   50.07223  50.07753 189.16413 189.19389 189.21782
 Alpha virt. eigenvalues --  189.23543
          Condensed to atoms (all electrons):
 Mulliken charges:
               1
     1  C    0.822527
     2  C   -0.010990
     3  C    0.465008
     4  C    0.400914
     5  S   -0.567790
     6  C   -0.408572
     7  C    0.750215
     8  C   -0.236327
     9  C   -0.167570
    10  C    0.016132
    11  N    0.767541
    12  C   -0.300460
    13  C    0.010204
    14  H    0.146063
    15  C    0.105943
    16  C   -0.442623
    17  C   -0.196547
    18  C    0.013391
    19  H    0.149814
    20  H    0.141937
    21  O   -0.174349
    22  C   -0.249556
    23  H    0.147397
    24  H    0.147304
    25  H    0.163531
    26  H    0.134140
    27  C   -0.352701
    28  C   -0.025374
    29  C    0.087198
    30  C   -0.459664
    31  C   -0.081156
    32  C   -0.027623
    33  H    0.149325
    34  H    0.141687
    35  O   -0.176353
    36  C   -0.254158
    37  H    0.148399
    38  H    0.147452
    39  H    0.163898
    40  H    0.133106
    41  H    0.146094
    42  C   -0.282484
    43  C   -0.672636
    44  H    0.128957
    45  H    0.155628
    46  H    0.157515
    47  H    0.137797
    48  C   -0.102496
    49  C    0.211108
    50  H    0.128847
    51  S   -0.705382
    52  C    0.311587
    53  C   -0.245823
    54  H    0.138935
    55  C    0.662372
    56  S   -0.671004
    57  C    0.308010
    58  C    0.233785
    59  C    0.176463
    60  C   -0.163836
    61  C   -0.470842
    62  S   -0.523782
    63  C    0.502096
    64  O   -0.281957
    65  O   -0.140664
    66  C   -0.171936
    67  H    0.164092
    68  H    0.166290
    69  H    0.166922
    70  H    0.183223
    71  C   -0.257263
    72  C    0.936704
    73  C   -0.921973
    74  N   -0.145987
    75  C   -0.007481
    76  O   -0.164213
    77  H    0.233352
    78  O   -0.253490
    79  H    0.135874
    80  C   -0.660261
    81  H    0.154144
    82  H    0.151404
    83  H    0.153214
    84  C   -0.679415
    85  H    0.151714
    86  H    0.152812
    87  H    0.152677
 Sum of Mulliken charges =  -0.00000
 Mulliken charges with hydrogens summed into heavy atoms:
               1
     1  C    0.822527
     2  C   -0.010990
     3  C    0.465008
     4  C    0.400914
     5  S   -0.567790
     6  C   -0.408572
     7  C    0.750215
     8  C   -0.098530
     9  C   -0.010056
    10  C    0.016132
    11  N    0.767541
    12  C   -0.300460
    13  C    0.156267
    15  C    0.240083
    16  C   -0.442623
    17  C   -0.054611
    18  C    0.163205
    21  O   -0.174349
    22  C    0.208675
    27  C   -0.352701
    28  C    0.120720
    29  C    0.220304
    30  C   -0.459664
    31  C    0.060531
    32  C    0.121702
    35  O   -0.176353
    36  C    0.205590
    42  C   -0.126856
    43  C   -0.543678
    48  C    0.026351
    49  C    0.211108
    51  S   -0.705382
    52  C    0.311587
    53  C   -0.106888
    55  C    0.662372
    56  S   -0.671004
    57  C    0.308010
    58  C    0.233785
    59  C    0.176463
    60  C    0.019387
    61  C   -0.470842
    62  S   -0.523782
    63  C    0.502096
    64  O   -0.281957
    65  O   -0.140664
    66  C    0.325368
    71  C   -0.121389
    72  C    0.936704
    73  C   -0.921973
    74  N   -0.145987
    75  C   -0.007481
    76  O    0.069139
    78  O   -0.253490
    80  C   -0.201500
    84  C   -0.222212
 Electronic spatial extent (au):  <R**2>=         100545.0474
 Charge=             -0.0000 electrons
 Dipole moment (field-independent basis, Debye):
    X=             15.4526    Y=             -3.2913    Z=              6.0298  Tot=             16.9108
 Quadrupole moment (field-independent basis, Debye-Ang):
   XX=           -462.6434   YY=           -307.7643   ZZ=           -351.9836
   XY=             -1.8647   XZ=            -25.7476   YZ=             -2.3895
 Traceless Quadrupole moment (field-independent basis, Debye-Ang):
   XX=            -88.5129   YY=             66.3661   ZZ=             22.1469
   XY=             -1.8647   XZ=            -25.7476   YZ=             -2.3895
 Octapole moment (field-independent basis, Debye-Ang**2):
  XXX=           3124.8061  YYY=             95.1102  ZZZ=             28.3128  XYY=            145.0994
  XXY=            289.0196  XXZ=            829.9438  XZZ=             80.6229  YZZ=             -3.4474
  YYZ=            103.3658  XYZ=            -52.5119
 Hexadecapole moment (field-independent basis, Debye-Ang**3):
 XXXX=        -149882.6643 YYYY=         -13451.3671 ZZZZ=          -1786.6193 XXXY=          -2055.9610
 XXXZ=          -4382.0071 YYYX=           -916.9139 YYYZ=            109.7966 ZZZX=           -158.3290
 ZZZY=             14.6383 XXYY=         -19236.6485 XXZZ=         -20688.5925 YYZZ=          -2742.4099
 XXYZ=           -288.6133 YYXZ=            205.9593 ZZXY=           -257.1496
 N-N= 7.134635100550D+03 E-N=-2.322228855780D+04  KE= 3.800855282961D+03
 1\1\GINC-CN112\SP\RCAM-B3LYP TD-FC\6-311+G(d,p)\C43H32N2O6S4\R2532\12-
 Jun-2021\0\\#N TD(NStates=10) CAM-B3lYP/6-311+G(d,p)\\Name\\0,1\C,0,0.
 937367,-3.073447,-0.186672\C,0,2.122867,-2.115248,-0.081661\C,0,1.6793
 16,-0.804099,0.068452\C,0,0.249325,-0.787165,0.077728\S,0,-1.03641,0.3
 61025,0.215518\C,0,-2.23886,-0.926149,0.055578\C,0,-3.663445,-0.618716
 ,0.088081\C,0,-4.167072,0.639785,-0.284618\C,0,-5.523215,0.918205,-0.2
 60048\C,0,-6.453643,-0.056471,0.14537\N,0,-7.828021,0.221147,0.178165\
 C,0,-8.300703,1.55297,0.385806\C,0,-9.254197,2.109715,-0.465769\H,0,-9
 .625209,1.528423,-1.30142\C,0,-9.745666,3.397532,-0.252908\C,0,-9.2670
 05,4.157431,0.817016\C,0,-8.304305,3.60531,1.672687\C,0,-7.836741,2.31
 8757,1.466163\H,0,-7.103023,1.89706,2.142771\H,0,-7.950783,4.202556,2.
 504337\O,0,-9.668305,5.425275,1.114274\C,0,-10.642233,6.03995,0.282435
 \H,0,-10.285306,6.139026,-0.748855\H,0,-11.585682,5.482513,0.288556\H,
 0,-10.808033,7.030888,0.701547\H,0,-10.488787,3.794368,-0.93121\C,0,-8
 .790537,-0.816003,-0.01459\C,0,-8.706892,-1.681719,-1.105345\C,0,-9.64
 7255,-2.694117,-1.294967\C,0,-10.70787,-2.83637,-0.396541\C,0,-10.8050
 65,-1.960304,0.692355\C,0,-9.855745,-0.970857,0.884487\H,0,-9.935782,-
 0.303465,1.734163\H,0,-11.631034,-2.085101,1.381938\O,0,-11.686719,-3.
 78038,-0.489179\C,0,-11.645727,-4.694126,-1.575939\H,0,-11.722954,-4.1
 77359,-2.539191\H,0,-10.731032,-5.297522,-1.559834\H,0,-12.508032,-5.3
 46312,-1.448547\H,0,-9.548391,-3.348753,-2.150306\H,0,-7.894861,-1.569
 078,-1.813892\C,0,-5.957184,-1.318867,0.523743\C,0,-4.600126,-1.587169
 ,0.494737\H,0,-4.253834,-2.557328,0.831925\H,0,-6.64587,-2.082701,0.86
 0973\H,0,-5.873589,1.893646,-0.571326\H,0,-3.486389,1.408137,-0.634689
 \C,0,-1.625489,-2.161053,-0.07841\C,0,-0.219718,-2.083396,-0.064821\H,
 0,-2.191968,-3.072577,-0.2147\S,0,2.977646,0.322058,0.184968\C,0,4.162
 184,-0.988087,0.012416\C,0,3.51621,-2.21773,-0.113955\H,0,4.06458,-3.1
 42153,-0.244654\C,0,5.567054,-0.737299,0.045138\S,0,6.680862,-2.036515
 ,0.376555\C,0,8.117241,-1.007346,0.249715\C,0,7.699721,0.298072,-0.013
 178\C,0,6.283611,0.455188,-0.144695\C,0,5.918293,1.776862,-0.543528\C,
 0,7.002029,2.580666,-0.716207\S,0,8.542754,1.781825,-0.380001\C,0,6.92
 9485,3.995445,-1.127359\O,0,5.9002,4.586493,-1.352715\O,0,8.156994,4.5
 42399,-1.221469\C,0,8.202058,5.929065,-1.604344\H,0,7.756993,6.064628,
 -2.59108\H,0,7.661788,6.539691,-0.879736\H,0,9.25704,6.190991,-1.61758
 1\H,0,4.914608,2.135918,-0.716605\C,0,9.37614,-1.65344,0.354095\C,0,10
 .622163,-1.158916,0.653764\C,0,10.831709,0.144243,1.17759\N,0,10.99524
 7,1.193976,1.635252\C,0,11.834467,-2.036742,0.645164\O,0,11.763023,-3.
 147544,-0.146859\H,0,11.061204,-3.044195,-0.799445\O,0,12.816952,-1.81
 8928,1.296115\H,0,9.33135,-2.730405,0.206037\C,0,0.917271,-3.80042,-1.
 548251\H,0,0.924169,-3.086302,-2.374015\H,0,1.789433,-4.452223,-1.6487
 99\H,0,0.021019,-4.420217,-1.637464\C,0,0.930182,-4.093261,0.972236\H,
 0,0.947217,-3.587426,1.939546\H,0,0.0336,-4.717316,0.926403\H,0,1.8021
 7,-4.750158,0.911574\\Version=ES64L-G16RevB.01\State=1-A\HF=-3810.9059
 34\RMSD=3.801e-09\PG=C01 [X(C43H32N2O6S4)]\\@


 WISDOM IS KNOWING WHAT TO DO,
 SKILL IS KNOWING HOW TO DO IT,
 AND VIRTUE IS NOT DOING IT.
 Job cpu time:       1 days  8 hours 42 minutes 40.8 seconds.
 Elapsed time:       1 days  8 hours 57 minutes 59.9 seconds.
 File lengths (MBytes):  RWF=  10787 Int=      0 D2E=      0 Chk=    735 Scr=      1
 Normal termination of Gaussian 16 at Sat Jun 12 18:22:56 2021.
