 Entering Gaussian System, Link 0=/usr/local/apps//g09/g09
 Input=MO.com
 Output=MO.out
 Initial command:
 /usr/local/apps//g09/l1.exe "/tmp/bnp.467247.sequoia/Gau-31556.inp" -scrdir="/tmp/bnp.467247.sequoia/"
 Entering Link 1 = /usr/local/apps//g09/l1.exe PID=     31557.
  
 Copyright (c) 1988,1990,1992,1993,1995,1998,2003,2009,2013,
            Gaussian, Inc.  All Rights Reserved.
  
 This is part of the Gaussian(R) 09 program.  It is based on
 the Gaussian(R) 03 system (copyright 2003, Gaussian, Inc.),
 the Gaussian(R) 98 system (copyright 1998, Gaussian, Inc.),
 the Gaussian(R) 94 system (copyright 1995, Gaussian, Inc.),
 the Gaussian 92(TM) system (copyright 1992, Gaussian, Inc.),
 the Gaussian 90(TM) system (copyright 1990, Gaussian, Inc.),
 the Gaussian 88(TM) system (copyright 1988, Gaussian, Inc.),
 the Gaussian 86(TM) system (copyright 1986, Carnegie Mellon
 University), and the Gaussian 82(TM) system (copyright 1983,
 Carnegie Mellon University). Gaussian is a federally registered
 trademark of Gaussian, Inc.
  
 This software contains proprietary and confidential information,
 including trade secrets, belonging to Gaussian, Inc.
  
 This software is provided under written license and may be
 used, copied, transmitted, or stored only in accord with that
 written license.
  
 The following legend is applicable only to US Government
 contracts under FAR:
  
                    RESTRICTED RIGHTS LEGEND
  
 Use, reproduction and disclosure by the US Government is
 subject to restrictions as set forth in subparagraphs (a)
 and (c) of the Commercial Computer Software - Restricted
 Rights clause in FAR 52.227-19.
  
 Gaussian, Inc.
 340 Quinnipiac St., Bldg. 40, Wallingford CT 06492
  
  
 ---------------------------------------------------------------
 Warning -- This program may not be used in any manner that
 competes with the business of Gaussian, Inc. or will provide
 assistance to any competitor of Gaussian, Inc.  The licensee
 of this program is prohibited from giving any competitor of
 Gaussian, Inc. access to this program.  By using this program,
 the user acknowledges that Gaussian, Inc. is engaged in the
 business of creating and licensing software in the field of
 computational chemistry and represents and warrants to the
 licensee that it is not a competitor of Gaussian, Inc. and that
 it will not use this program in any manner prohibited above.
 ---------------------------------------------------------------
  

 Cite this work as:
 Gaussian 09, Revision D.01,
 M. J. Frisch, G. W. Trucks, H. B. Schlegel, G. E. Scuseria, 
 M. A. Robb, J. R. Cheeseman, G. Scalmani, V. Barone, B. Mennucci, 
 G. A. Petersson, H. Nakatsuji, M. Caricato, X. Li, H. P. Hratchian, 
 A. F. Izmaylov, J. Bloino, G. Zheng, J. L. Sonnenberg, M. Hada, 
 M. Ehara, K. Toyota, R. Fukuda, J. Hasegawa, M. Ishida, T. Nakajima, 
 Y. Honda, O. Kitao, H. Nakai, T. Vreven, J. A. Montgomery, Jr., 
 J. E. Peralta, F. Ogliaro, M. Bearpark, J. J. Heyd, E. Brothers, 
 K. N. Kudin, V. N. Staroverov, T. Keith, R. Kobayashi, J. Normand, 
 K. Raghavachari, A. Rendell, J. C. Burant, S. S. Iyengar, J. Tomasi, 
 M. Cossi, N. Rega, J. M. Millam, M. Klene, J. E. Knox, J. B. Cross, 
 V. Bakken, C. Adamo, J. Jaramillo, R. Gomperts, R. E. Stratmann, 
 O. Yazyev, A. J. Austin, R. Cammi, C. Pomelli, J. W. Ochterski, 
 R. L. Martin, K. Morokuma, V. G. Zakrzewski, G. A. Voth, 
 P. Salvador, J. J. Dannenberg, S. Dapprich, A. D. Daniels, 
 O. Farkas, J. B. Foresman, J. V. Ortiz, J. Cioslowski, 
 and D. J. Fox, Gaussian, Inc., Wallingford CT, 2013.
 
 ******************************************
 Gaussian 09:  ES64L-G09RevD.01 24-Apr-2013
                17-May-2021 
 ******************************************
 %mem=8gb
 ----------------------------------------------------------
 #N TD(NStates=1,root=1) B3lYP/6-311G(d,p) OPT Guess=Sparse
 ----------------------------------------------------------
 1/14=-1,18=20,19=15,26=3,38=1/1,3;
 2/9=110,12=2,17=6,18=5,40=1/2;
 3/5=4,6=6,7=101,11=9,16=1,25=1,30=1,71=1,74=-5/1,2,8,3;
 4//1;
 5/5=2,38=5/2;
 8/6=1,10=2,107=1,108=1/1;
 9/8=1,15=2,41=1,42=1,70=2/14;
 10/5=4/2;
 6/7=2,8=2,9=2,10=2/1;
 7/12=6,13=5,14=1/1,2,3,16;
 1/14=-1,18=20,19=15,26=3/3(2);
 2/9=110/2;
 99//99;
 2/9=110/2;
 3/5=4,6=6,7=101,11=9,16=1,25=1,30=1,71=1,74=-5/1,2,8,3;
 4/5=5,16=3,69=1/1;
 5/5=2,38=5/2;
 8/6=1,10=2,107=1,108=1/1;
 9/8=1,15=2,41=1,42=1,49=4,70=2/14;
 10/5=4/2;
 7/12=6,13=5,14=1/1,2,3,16;
 1/14=-1,18=20,19=15,26=3/3(-8);
 2/9=110/2;
 6/7=2,8=2,9=2,10=2/1;
 99//99;
 ----
 name
 ----
 Symbolic Z-matrix:
 Charge =  0 Multiplicity = 1
 6                    -0.01235  -2.98003  -0.40771 
 6                     1.18184  -2.04544  -0.2224 
 6                     0.7522   -0.74417   0.01821 
 6                    -0.67895  -0.71242   0.01896 
 16                   -1.95265   0.4361    0.23461 
 6                    -3.16699  -0.82263  -0.0242 
 6                    -4.59021  -0.50427   0.02373 
 6                    -5.07759   0.78562  -0.24998 
 6                    -6.43259   1.07238  -0.21459 
 6                    -7.36993   0.07578   0.10204 
 7                    -8.75079   0.361     0.13902 
 6                    -9.21415   1.62547   0.60434 
 6                    -10.21145   2.31508  -0.09662 
 1                    -10.62152   1.88363  -1.00162 
 6                    -10.67357   3.54236   0.36812 
 6                    -10.14021   4.10744   1.52502 
 6                    -9.14302   3.42607   2.22086 
 6                    -8.6871    2.19048   1.77293 
 1                    -7.92224   1.65803   2.32522 
 1                    -8.72584   3.85059   3.12718 
 1                    -10.49777   5.06654   1.8808 
 1                    -11.44616   4.06426  -0.18537 
 6                    -9.69748  -0.61033  -0.29679 
 6                    -9.49194  -1.32037  -1.4869 
 6                    -10.41922  -2.26866  -1.90651 
 6                    -11.57083  -2.51117  -1.15972 
 6                    -11.78298  -1.79823   0.01894 
 6                    -10.8526  -0.86017   0.45489 
 1                    -11.01624  -0.31451   1.37616 
 1                    -12.67264  -1.98015   0.61143 
 1                    -12.29496  -3.24518  -1.49316 
 1                    -10.24675  -2.80939  -2.83043 
 1                    -8.6057   -1.12446  -2.07824 
 6                    -6.89213  -1.21538   0.3838 
 6                    -5.53667  -1.49468   0.34425 
 1                    -5.20109  -2.49162   0.60484 
 1                    -7.59312  -1.99619   0.65067 
 1                    -6.77496   2.07245  -0.4483 
 1                    -4.38668   1.57273  -0.5311 
 6                    -2.56663  -2.05029  -0.2466 
 6                    -1.15979  -1.98928  -0.22078 
 1                    -3.14131  -2.94363  -0.45166 
 16                    2.06189   0.35653   0.22066 
 6                     3.23193  -0.9515   -0.03735 
 6                     2.57535  -2.16154  -0.25304 
 1                     3.1151   -3.07979  -0.44723 
 6                     4.64038  -0.71741   0.02324 
 16                    5.73333  -2.03408   0.34905 
 6                     7.18193  -1.01934   0.26228 
 6                     6.7836    0.29513   0.01641 
 6                     5.37104   0.46985  -0.13337 
 6                     5.02508   1.80127  -0.51772 
 6                     6.1197    2.59537  -0.66224 
 16                    7.64723   1.77551  -0.31511 
 6                     6.06901   4.01707  -1.05397 
 8                     5.04965   4.62232  -1.28589 
 8                     7.30361   4.55105  -1.12162 
 6                     7.37038   5.94274  -1.48322 
 1                     6.94443   6.09741  -2.47558 
 1                     6.82381   6.54839  -0.75923 
 1                     8.42818   6.19311  -1.47407 
 1                     4.02736   2.17206  -0.70061 
 6                     8.43262  -1.68148   0.37805 
 6                     9.67609  -1.20589   0.71315 
 6                     9.88815   0.08673   1.26191 
 7                     10.05322   1.12754   1.73877 
 6                     10.87948  -2.09716   0.71829 
 8                     11.84675  -1.90077   1.39787 
 8                     10.81648  -3.19271  -0.09447 
 1                     10.13273  -3.07114  -0.76297 
 1                     8.37965  -2.75469   0.20737 
 6                    -0.02792  -3.60117  -1.82105 
 1                    -0.00796  -2.82636  -2.5899 
 1                     0.83921  -4.25157  -1.96451 
 1                    -0.92874  -4.20399  -1.96397 
 6                    -0.04044  -4.08516   0.66982 
 1                    -0.02589  -3.65535   1.6733 
 1                    -0.94352  -4.69321   0.56946 
 1                     0.82449  -4.74597   0.56577 
 

 GradGradGradGradGradGradGradGradGradGradGradGradGradGradGradGradGradGrad
 Berny optimization.
 Initialization pass.
                           ----------------------------
                           !    Initial Parameters    !
                           ! (Angstroms and Degrees)  !
 --------------------------                            --------------------------
 ! Name  Definition              Value          Derivative Info.                !
 --------------------------------------------------------------------------------
 ! R1    R(1,2)                  1.5277         estimate D2E/DX2                !
 ! R2    R(1,41)                 1.5275         estimate D2E/DX2                !
 ! R3    R(1,72)                 1.5439         estimate D2E/DX2                !
 ! R4    R(1,76)                 1.5438         estimate D2E/DX2                !
 ! R5    R(2,3)                  1.3913         estimate D2E/DX2                !
 ! R6    R(2,45)                 1.3987         estimate D2E/DX2                !
 ! R7    R(3,4)                  1.4315         estimate D2E/DX2                !
 ! R8    R(3,43)                 1.7227         estimate D2E/DX2                !
 ! R9    R(4,5)                  1.7286         estimate D2E/DX2                !
 ! R10   R(4,41)                 1.3853         estimate D2E/DX2                !
 ! R11   R(5,6)                  1.7681         estimate D2E/DX2                !
 ! R12   R(6,7)                  1.4592         estimate D2E/DX2                !
 ! R13   R(6,40)                 1.3846         estimate D2E/DX2                !
 ! R14   R(7,8)                  1.4058         estimate D2E/DX2                !
 ! R15   R(7,35)                 1.4069         estimate D2E/DX2                !
 ! R16   R(8,9)                  1.3855         estimate D2E/DX2                !
 ! R17   R(8,39)                 1.0844         estimate D2E/DX2                !
 ! R18   R(9,10)                 1.4043         estimate D2E/DX2                !
 ! R19   R(9,38)                 1.0826         estimate D2E/DX2                !
 ! R20   R(10,11)                1.4105         estimate D2E/DX2                !
 ! R21   R(10,34)                1.4053         estimate D2E/DX2                !
 ! R22   R(11,12)                1.4248         estimate D2E/DX2                !
 ! R23   R(11,23)                1.4246         estimate D2E/DX2                !
 ! R24   R(12,13)                1.4005         estimate D2E/DX2                !
 ! R25   R(12,18)                1.4009         estimate D2E/DX2                !
 ! R26   R(13,14)                1.0832         estimate D2E/DX2                !
 ! R27   R(13,15)                1.3913         estimate D2E/DX2                !
 ! R28   R(15,16)                1.3936         estimate D2E/DX2                !
 ! R29   R(15,22)                1.0843         estimate D2E/DX2                !
 ! R30   R(16,17)                1.3938         estimate D2E/DX2                !
 ! R31   R(16,21)                1.0837         estimate D2E/DX2                !
 ! R32   R(17,18)                1.3911         estimate D2E/DX2                !
 ! R33   R(17,20)                1.0843         estimate D2E/DX2                !
 ! R34   R(18,19)                1.0833         estimate D2E/DX2                !
 ! R35   R(23,24)                1.401          estimate D2E/DX2                !
 ! R36   R(23,28)                1.4006         estimate D2E/DX2                !
 ! R37   R(24,25)                1.3911         estimate D2E/DX2                !
 ! R38   R(24,33)                1.0833         estimate D2E/DX2                !
 ! R39   R(25,26)                1.3938         estimate D2E/DX2                !
 ! R40   R(25,32)                1.0843         estimate D2E/DX2                !
 ! R41   R(26,27)                1.3937         estimate D2E/DX2                !
 ! R42   R(26,31)                1.0837         estimate D2E/DX2                !
 ! R43   R(27,28)                1.3913         estimate D2E/DX2                !
 ! R44   R(27,30)                1.0843         estimate D2E/DX2                !
 ! R45   R(28,29)                1.0832         estimate D2E/DX2                !
 ! R46   R(34,35)                1.3845         estimate D2E/DX2                !
 ! R47   R(34,37)                1.0827         estimate D2E/DX2                !
 ! R48   R(35,36)                1.0837         estimate D2E/DX2                !
 ! R49   R(40,41)                1.4084         estimate D2E/DX2                !
 ! R50   R(40,42)                1.0818         estimate D2E/DX2                !
 ! R51   R(43,44)                1.7738         estimate D2E/DX2                !
 ! R52   R(44,45)                1.3935         estimate D2E/DX2                !
 ! R53   R(44,47)                1.4291         estimate D2E/DX2                !
 ! R54   R(45,46)                1.0827         estimate D2E/DX2                !
 ! R55   R(47,48)                1.7419         estimate D2E/DX2                !
 ! R56   R(47,51)                1.4028         estimate D2E/DX2                !
 ! R57   R(48,49)                1.7708         estimate D2E/DX2                !
 ! R58   R(49,50)                1.3953         estimate D2E/DX2                !
 ! R59   R(49,63)                1.4199         estimate D2E/DX2                !
 ! R60   R(50,51)                1.4312         estimate D2E/DX2                !
 ! R61   R(50,54)                1.7457         estimate D2E/DX2                !
 ! R62   R(51,52)                1.4283         estimate D2E/DX2                !
 ! R63   R(52,53)                1.36           estimate D2E/DX2                !
 ! R64   R(52,62)                1.08           estimate D2E/DX2                !
 ! R65   R(53,54)                1.768          estimate D2E/DX2                !
 ! R66   R(53,55)                1.4756         estimate D2E/DX2                !
 ! R67   R(55,56)                1.208          estimate D2E/DX2                !
 ! R68   R(55,57)                1.3468         estimate D2E/DX2                !
 ! R69   R(57,58)                1.4395         estimate D2E/DX2                !
 ! R70   R(58,59)                1.0909         estimate D2E/DX2                !
 ! R71   R(58,60)                1.0907         estimate D2E/DX2                !
 ! R72   R(58,61)                1.0871         estimate D2E/DX2                !
 ! R73   R(63,64)                1.3728         estimate D2E/DX2                !
 ! R74   R(63,71)                1.088          estimate D2E/DX2                !
 ! R75   R(64,65)                1.4202         estimate D2E/DX2                !
 ! R76   R(64,67)                1.4975         estimate D2E/DX2                !
 ! R77   R(65,66)                1.1567         estimate D2E/DX2                !
 ! R78   R(67,68)                1.1983         estimate D2E/DX2                !
 ! R79   R(67,69)                1.3656         estimate D2E/DX2                !
 ! R80   R(69,70)                0.9639         estimate D2E/DX2                !
 ! R81   R(72,73)                1.0917         estimate D2E/DX2                !
 ! R82   R(72,74)                1.0934         estimate D2E/DX2                !
 ! R83   R(72,75)                1.0933         estimate D2E/DX2                !
 ! R84   R(76,77)                1.0918         estimate D2E/DX2                !
 ! R85   R(76,78)                1.0933         estimate D2E/DX2                !
 ! R86   R(76,79)                1.0934         estimate D2E/DX2                !
 ! A1    A(2,1,41)             100.1114         estimate D2E/DX2                !
 ! A2    A(2,1,72)             111.411          estimate D2E/DX2                !
 ! A3    A(2,1,76)             111.5614         estimate D2E/DX2                !
 ! A4    A(41,1,72)            111.4333         estimate D2E/DX2                !
 ! A5    A(41,1,76)            111.4222         estimate D2E/DX2                !
 ! A6    A(72,1,76)            110.5347         estimate D2E/DX2                !
 ! A7    A(1,2,3)              110.5945         estimate D2E/DX2                !
 ! A8    A(1,2,45)             136.499          estimate D2E/DX2                !
 ! A9    A(3,2,45)             112.8978         estimate D2E/DX2                !
 ! A10   A(2,3,4)              109.2422         estimate D2E/DX2                !
 ! A11   A(2,3,43)             112.5277         estimate D2E/DX2                !
 ! A12   A(4,3,43)             138.2294         estimate D2E/DX2                !
 ! A13   A(3,4,5)              138.7187         estimate D2E/DX2                !
 ! A14   A(3,4,41)             109.0554         estimate D2E/DX2                !
 ! A15   A(5,4,41)             112.2253         estimate D2E/DX2                !
 ! A16   A(4,5,6)               90.8478         estimate D2E/DX2                !
 ! A17   A(5,6,7)              120.648          estimate D2E/DX2                !
 ! A18   A(5,6,40)             110.913          estimate D2E/DX2                !
 ! A19   A(7,6,40)             128.4367         estimate D2E/DX2                !
 ! A20   A(6,7,8)              122.1369         estimate D2E/DX2                !
 ! A21   A(6,7,35)             120.6657         estimate D2E/DX2                !
 ! A22   A(8,7,35)             117.1967         estimate D2E/DX2                !
 ! A23   A(7,8,9)              121.6015         estimate D2E/DX2                !
 ! A24   A(7,8,39)             119.7079         estimate D2E/DX2                !
 ! A25   A(9,8,39)             118.654          estimate D2E/DX2                !
 ! A26   A(8,9,10)             120.7753         estimate D2E/DX2                !
 ! A27   A(8,9,38)             119.6686         estimate D2E/DX2                !
 ! A28   A(10,9,38)            119.5494         estimate D2E/DX2                !
 ! A29   A(9,10,11)            121.055          estimate D2E/DX2                !
 ! A30   A(9,10,34)            118.0545         estimate D2E/DX2                !
 ! A31   A(11,10,34)           120.8904         estimate D2E/DX2                !
 ! A32   A(10,11,12)           120.4238         estimate D2E/DX2                !
 ! A33   A(10,11,23)           120.3088         estimate D2E/DX2                !
 ! A34   A(12,11,23)           119.2662         estimate D2E/DX2                !
 ! A35   A(11,12,13)           120.3382         estimate D2E/DX2                !
 ! A36   A(11,12,18)           120.5298         estimate D2E/DX2                !
 ! A37   A(13,12,18)           119.1302         estimate D2E/DX2                !
 ! A38   A(12,13,14)           119.4457         estimate D2E/DX2                !
 ! A39   A(12,13,15)           120.2433         estimate D2E/DX2                !
 ! A40   A(14,13,15)           120.3107         estimate D2E/DX2                !
 ! A41   A(13,15,16)           120.5202         estimate D2E/DX2                !
 ! A42   A(13,15,22)           119.3895         estimate D2E/DX2                !
 ! A43   A(16,15,22)           120.0858         estimate D2E/DX2                !
 ! A44   A(15,16,17)           119.341          estimate D2E/DX2                !
 ! A45   A(15,16,21)           120.3402         estimate D2E/DX2                !
 ! A46   A(17,16,21)           120.3188         estimate D2E/DX2                !
 ! A47   A(16,17,18)           120.525          estimate D2E/DX2                !
 ! A48   A(16,17,20)           120.0766         estimate D2E/DX2                !
 ! A49   A(18,17,20)           119.3922         estimate D2E/DX2                !
 ! A50   A(12,18,17)           120.2324         estimate D2E/DX2                !
 ! A51   A(12,18,19)           119.5161         estimate D2E/DX2                !
 ! A52   A(17,18,19)           120.2515         estimate D2E/DX2                !
 ! A53   A(11,23,24)           120.5255         estimate D2E/DX2                !
 ! A54   A(11,23,28)           120.363          estimate D2E/DX2                !
 ! A55   A(24,23,28)           119.1095         estimate D2E/DX2                !
 ! A56   A(23,24,25)           120.2605         estimate D2E/DX2                !
 ! A57   A(23,24,33)           119.4772         estimate D2E/DX2                !
 ! A58   A(25,24,33)           120.2622         estimate D2E/DX2                !
 ! A59   A(24,25,26)           120.513          estimate D2E/DX2                !
 ! A60   A(24,25,32)           119.4019         estimate D2E/DX2                !
 ! A61   A(26,25,32)           120.0785         estimate D2E/DX2                !
 ! A62   A(25,26,27)           119.3324         estimate D2E/DX2                !
 ! A63   A(25,26,31)           120.3379         estimate D2E/DX2                !
 ! A64   A(27,26,31)           120.3296         estimate D2E/DX2                !
 ! A65   A(26,27,28)           120.5371         estimate D2E/DX2                !
 ! A66   A(26,27,30)           120.0787         estimate D2E/DX2                !
 ! A67   A(28,27,30)           119.3802         estimate D2E/DX2                !
 ! A68   A(23,28,27)           120.2397         estimate D2E/DX2                !
 ! A69   A(23,28,29)           119.4191         estimate D2E/DX2                !
 ! A70   A(27,28,29)           120.3409         estimate D2E/DX2                !
 ! A71   A(10,34,35)           120.8304         estimate D2E/DX2                !
 ! A72   A(10,34,37)           119.4648         estimate D2E/DX2                !
 ! A73   A(35,34,37)           119.6973         estimate D2E/DX2                !
 ! A74   A(7,35,34)            121.5403         estimate D2E/DX2                !
 ! A75   A(7,35,36)            119.6085         estimate D2E/DX2                !
 ! A76   A(34,35,36)           118.8079         estimate D2E/DX2                !
 ! A77   A(6,40,41)            113.0649         estimate D2E/DX2                !
 ! A78   A(6,40,42)            122.1608         estimate D2E/DX2                !
 ! A79   A(41,40,42)           124.7407         estimate D2E/DX2                !
 ! A80   A(1,41,4)             110.9948         estimate D2E/DX2                !
 ! A81   A(1,41,40)            136.0573         estimate D2E/DX2                !
 ! A82   A(4,41,40)            112.9432         estimate D2E/DX2                !
 ! A83   A(3,43,44)             90.7577         estimate D2E/DX2                !
 ! A84   A(43,44,45)           110.6121         estimate D2E/DX2                !
 ! A85   A(43,44,47)           121.5433         estimate D2E/DX2                !
 ! A86   A(45,44,47)           127.8204         estimate D2E/DX2                !
 ! A87   A(2,45,44)            113.2015         estimate D2E/DX2                !
 ! A88   A(2,45,46)            124.8213         estimate D2E/DX2                !
 ! A89   A(44,45,46)           121.9601         estimate D2E/DX2                !
 ! A90   A(44,47,48)           120.1659         estimate D2E/DX2                !
 ! A91   A(44,47,51)           130.3333         estimate D2E/DX2                !
 ! A92   A(48,47,51)           109.499          estimate D2E/DX2                !
 ! A93   A(47,48,49)            94.0697         estimate D2E/DX2                !
 ! A94   A(48,49,50)           108.3568         estimate D2E/DX2                !
 ! A95   A(48,49,63)           116.7024         estimate D2E/DX2                !
 ! A96   A(50,49,63)           134.8404         estimate D2E/DX2                !
 ! A97   A(49,50,51)           114.5324         estimate D2E/DX2                !
 ! A98   A(49,50,54)           133.7193         estimate D2E/DX2                !
 ! A99   A(51,50,54)           111.4007         estimate D2E/DX2                !
 ! A100  A(47,51,50)           113.5196         estimate D2E/DX2                !
 ! A101  A(47,51,52)           133.8513         estimate D2E/DX2                !
 ! A102  A(50,51,52)           112.3972         estimate D2E/DX2                !
 ! A103  A(51,52,53)           112.2049         estimate D2E/DX2                !
 ! A104  A(51,52,62)           126.1123         estimate D2E/DX2                !
 ! A105  A(53,52,62)           121.6737         estimate D2E/DX2                !
 ! A106  A(52,53,54)           113.8127         estimate D2E/DX2                !
 ! A107  A(52,53,55)           124.2727         estimate D2E/DX2                !
 ! A108  A(54,53,55)           121.9101         estimate D2E/DX2                !
 ! A109  A(50,54,53)            90.1775         estimate D2E/DX2                !
 ! A110  A(53,55,56)           124.2444         estimate D2E/DX2                !
 ! A111  A(53,55,57)           111.3364         estimate D2E/DX2                !
 ! A112  A(56,55,57)           124.4191         estimate D2E/DX2                !
 ! A113  A(55,57,58)           116.0054         estimate D2E/DX2                !
 ! A114  A(57,58,59)           110.3328         estimate D2E/DX2                !
 ! A115  A(57,58,60)           110.2955         estimate D2E/DX2                !
 ! A116  A(57,58,61)           105.4084         estimate D2E/DX2                !
 ! A117  A(59,58,60)           109.233          estimate D2E/DX2                !
 ! A118  A(59,58,61)           110.7897         estimate D2E/DX2                !
 ! A119  A(60,58,61)           110.74           estimate D2E/DX2                !
 ! A120  A(49,63,64)           131.0093         estimate D2E/DX2                !
 ! A121  A(49,63,71)           113.8485         estimate D2E/DX2                !
 ! A122  A(64,63,71)           115.0951         estimate D2E/DX2                !
 ! A123  A(63,64,65)           123.0162         estimate D2E/DX2                !
 ! A124  A(63,64,67)           121.5012         estimate D2E/DX2                !
 ! A125  A(65,64,67)           114.8587         estimate D2E/DX2                !
 ! A126  A(64,67,68)           123.5761         estimate D2E/DX2                !
 ! A127  A(64,67,69)           115.9997         estimate D2E/DX2                !
 ! A128  A(68,67,69)           120.4146         estimate D2E/DX2                !
 ! A129  A(67,69,70)           110.1397         estimate D2E/DX2                !
 ! A130  A(1,72,73)            111.0375         estimate D2E/DX2                !
 ! A131  A(1,72,74)            110.5757         estimate D2E/DX2                !
 ! A132  A(1,72,75)            110.476          estimate D2E/DX2                !
 ! A133  A(73,72,74)           108.377          estimate D2E/DX2                !
 ! A134  A(73,72,75)           108.3193         estimate D2E/DX2                !
 ! A135  A(74,72,75)           107.9572         estimate D2E/DX2                !
 ! A136  A(1,76,77)            111.069          estimate D2E/DX2                !
 ! A137  A(1,76,78)            110.432          estimate D2E/DX2                !
 ! A138  A(1,76,79)            110.5986         estimate D2E/DX2                !
 ! A139  A(77,76,78)           108.32           estimate D2E/DX2                !
 ! A140  A(77,76,79)           108.3515         estimate D2E/DX2                !
 ! A141  A(78,76,79)           107.9709         estimate D2E/DX2                !
 ! A142  L(64,65,66,3,-1)      179.7625         estimate D2E/DX2                !
 ! A143  L(64,65,66,3,-2)      178.31           estimate D2E/DX2                !
 ! D1    D(41,1,2,3)            -0.3957         estimate D2E/DX2                !
 ! D2    D(41,1,2,45)         -179.1998         estimate D2E/DX2                !
 ! D3    D(72,1,2,3)           117.5495         estimate D2E/DX2                !
 ! D4    D(72,1,2,45)          -61.2547         estimate D2E/DX2                !
 ! D5    D(76,1,2,3)          -118.3898         estimate D2E/DX2                !
 ! D6    D(76,1,2,45)           62.806          estimate D2E/DX2                !
 ! D7    D(2,1,41,4)             0.3875         estimate D2E/DX2                !
 ! D8    D(2,1,41,40)          179.5113         estimate D2E/DX2                !
 ! D9    D(72,1,41,4)         -117.5412         estimate D2E/DX2                !
 ! D10   D(72,1,41,40)          61.5827         estimate D2E/DX2                !
 ! D11   D(76,1,41,4)          118.4845         estimate D2E/DX2                !
 ! D12   D(76,1,41,40)         -62.3917         estimate D2E/DX2                !
 ! D13   D(2,1,72,73)          -55.3466         estimate D2E/DX2                !
 ! D14   D(2,1,72,74)           64.9966         estimate D2E/DX2                !
 ! D15   D(2,1,72,75)         -175.5512         estimate D2E/DX2                !
 ! D16   D(41,1,72,73)          55.5399         estimate D2E/DX2                !
 ! D17   D(41,1,72,74)         175.8832         estimate D2E/DX2                !
 ! D18   D(41,1,72,75)         -64.6646         estimate D2E/DX2                !
 ! D19   D(76,1,72,73)        -179.9854         estimate D2E/DX2                !
 ! D20   D(76,1,72,74)         -59.6422         estimate D2E/DX2                !
 ! D21   D(76,1,72,75)          59.81           estimate D2E/DX2                !
 ! D22   D(2,1,76,77)           55.2349         estimate D2E/DX2                !
 ! D23   D(2,1,76,78)          175.4318         estimate D2E/DX2                !
 ! D24   D(2,1,76,79)          -65.1124         estimate D2E/DX2                !
 ! D25   D(41,1,76,77)         -55.7311         estimate D2E/DX2                !
 ! D26   D(41,1,76,78)          64.4658         estimate D2E/DX2                !
 ! D27   D(41,1,76,79)        -176.0784         estimate D2E/DX2                !
 ! D28   D(72,1,76,77)         179.7879         estimate D2E/DX2                !
 ! D29   D(72,1,76,78)         -60.0152         estimate D2E/DX2                !
 ! D30   D(72,1,76,79)          59.4406         estimate D2E/DX2                !
 ! D31   D(1,2,3,4)              0.279          estimate D2E/DX2                !
 ! D32   D(1,2,3,43)          -179.4694         estimate D2E/DX2                !
 ! D33   D(45,2,3,4)           179.3854         estimate D2E/DX2                !
 ! D34   D(45,2,3,43)           -0.363          estimate D2E/DX2                !
 ! D35   D(1,2,45,44)          178.7448         estimate D2E/DX2                !
 ! D36   D(1,2,45,46)            0.2305         estimate D2E/DX2                !
 ! D37   D(3,2,45,44)           -0.0399         estimate D2E/DX2                !
 ! D38   D(3,2,45,46)         -178.5543         estimate D2E/DX2                !
 ! D39   D(2,3,4,5)            179.6783         estimate D2E/DX2                !
 ! D40   D(2,3,4,41)            -0.0165         estimate D2E/DX2                !
 ! D41   D(43,3,4,5)            -0.6706         estimate D2E/DX2                !
 ! D42   D(43,3,4,41)          179.6346         estimate D2E/DX2                !
 ! D43   D(2,3,43,44)            0.498          estimate D2E/DX2                !
 ! D44   D(4,3,43,44)         -179.1453         estimate D2E/DX2                !
 ! D45   D(3,4,5,6)            179.5954         estimate D2E/DX2                !
 ! D46   D(41,4,5,6)            -0.7162         estimate D2E/DX2                !
 ! D47   D(3,4,41,1)            -0.2533         estimate D2E/DX2                !
 ! D48   D(3,4,41,40)         -179.5931         estimate D2E/DX2                !
 ! D49   D(5,4,41,1)           179.9642         estimate D2E/DX2                !
 ! D50   D(5,4,41,40)            0.6245         estimate D2E/DX2                !
 ! D51   D(4,5,6,7)           -179.8818         estimate D2E/DX2                !
 ! D52   D(4,5,6,40)             0.6371         estimate D2E/DX2                !
 ! D53   D(5,6,7,8)             25.4551         estimate D2E/DX2                !
 ! D54   D(5,6,7,35)          -154.8519         estimate D2E/DX2                !
 ! D55   D(40,6,7,8)          -155.1637         estimate D2E/DX2                !
 ! D56   D(40,6,7,35)           24.5293         estimate D2E/DX2                !
 ! D57   D(5,6,40,41)           -0.4079         estimate D2E/DX2                !
 ! D58   D(5,6,40,42)         -178.3896         estimate D2E/DX2                !
 ! D59   D(7,6,40,41)         -179.838          estimate D2E/DX2                !
 ! D60   D(7,6,40,42)            2.1803         estimate D2E/DX2                !
 ! D61   D(6,7,8,9)            179.3303         estimate D2E/DX2                !
 ! D62   D(6,7,8,39)             1.5598         estimate D2E/DX2                !
 ! D63   D(35,7,8,9)            -0.3728         estimate D2E/DX2                !
 ! D64   D(35,7,8,39)         -178.1433         estimate D2E/DX2                !
 ! D65   D(6,7,35,34)         -179.4431         estimate D2E/DX2                !
 ! D66   D(6,7,35,36)            2.9787         estimate D2E/DX2                !
 ! D67   D(8,7,35,34)            0.2646         estimate D2E/DX2                !
 ! D68   D(8,7,35,36)         -177.3135         estimate D2E/DX2                !
 ! D69   D(7,8,9,10)             0.1712         estimate D2E/DX2                !
 ! D70   D(7,8,9,38)          -178.8924         estimate D2E/DX2                !
 ! D71   D(39,8,9,10)          177.9646         estimate D2E/DX2                !
 ! D72   D(39,8,9,38)           -1.099          estimate D2E/DX2                !
 ! D73   D(8,9,10,11)         -179.963          estimate D2E/DX2                !
 ! D74   D(8,9,10,34)            0.1475         estimate D2E/DX2                !
 ! D75   D(38,9,10,11)          -0.8983         estimate D2E/DX2                !
 ! D76   D(38,9,10,34)         179.2122         estimate D2E/DX2                !
 ! D77   D(9,10,11,12)         -35.642          estimate D2E/DX2                !
 ! D78   D(9,10,11,23)         143.9681         estimate D2E/DX2                !
 ! D79   D(34,10,11,12)        144.2444         estimate D2E/DX2                !
 ! D80   D(34,10,11,23)        -36.1455         estimate D2E/DX2                !
 ! D81   D(9,10,34,35)          -0.2543         estimate D2E/DX2                !
 ! D82   D(9,10,34,37)         178.7446         estimate D2E/DX2                !
 ! D83   D(11,10,34,35)        179.856          estimate D2E/DX2                !
 ! D84   D(11,10,34,37)         -1.1452         estimate D2E/DX2                !
 ! D85   D(10,11,12,13)        135.1685         estimate D2E/DX2                !
 ! D86   D(10,11,12,18)        -45.3347         estimate D2E/DX2                !
 ! D87   D(23,11,12,13)        -44.4456         estimate D2E/DX2                !
 ! D88   D(23,11,12,18)        135.0511         estimate D2E/DX2                !
 ! D89   D(10,11,23,24)        -45.1248         estimate D2E/DX2                !
 ! D90   D(10,11,23,28)        135.3896         estimate D2E/DX2                !
 ! D91   D(12,11,23,24)        134.4898         estimate D2E/DX2                !
 ! D92   D(12,11,23,28)        -44.9958         estimate D2E/DX2                !
 ! D93   D(11,12,13,14)         -0.5878         estimate D2E/DX2                !
 ! D94   D(11,12,13,15)        179.2446         estimate D2E/DX2                !
 ! D95   D(18,12,13,14)        179.9085         estimate D2E/DX2                !
 ! D96   D(18,12,13,15)         -0.2591         estimate D2E/DX2                !
 ! D97   D(11,12,18,17)        179.9318         estimate D2E/DX2                !
 ! D98   D(11,12,18,19)         -0.0869         estimate D2E/DX2                !
 ! D99   D(13,12,18,17)         -0.5655         estimate D2E/DX2                !
 ! D100  D(13,12,18,19)        179.4158         estimate D2E/DX2                !
 ! D101  D(12,13,15,16)          0.7769         estimate D2E/DX2                !
 ! D102  D(12,13,15,22)       -179.9919         estimate D2E/DX2                !
 ! D103  D(14,13,15,16)       -179.3922         estimate D2E/DX2                !
 ! D104  D(14,13,15,22)         -0.161          estimate D2E/DX2                !
 ! D105  D(13,15,16,17)         -0.4627         estimate D2E/DX2                !
 ! D106  D(13,15,16,21)        179.5993         estimate D2E/DX2                !
 ! D107  D(22,15,16,17)       -179.6886         estimate D2E/DX2                !
 ! D108  D(22,15,16,21)          0.3734         estimate D2E/DX2                !
 ! D109  D(15,16,17,18)         -0.3675         estimate D2E/DX2                !
 ! D110  D(15,16,17,20)       -179.4592         estimate D2E/DX2                !
 ! D111  D(21,16,17,18)        179.5705         estimate D2E/DX2                !
 ! D112  D(21,16,17,20)          0.4788         estimate D2E/DX2                !
 ! D113  D(16,17,18,12)          0.8839         estimate D2E/DX2                !
 ! D114  D(16,17,18,19)       -179.0972         estimate D2E/DX2                !
 ! D115  D(20,17,18,12)        179.9818         estimate D2E/DX2                !
 ! D116  D(20,17,18,19)          0.0007         estimate D2E/DX2                !
 ! D117  D(11,23,24,25)        179.9293         estimate D2E/DX2                !
 ! D118  D(11,23,24,33)         -0.1263         estimate D2E/DX2                !
 ! D119  D(28,23,24,25)         -0.5787         estimate D2E/DX2                !
 ! D120  D(28,23,24,33)        179.3657         estimate D2E/DX2                !
 ! D121  D(11,23,28,27)        179.2562         estimate D2E/DX2                !
 ! D122  D(11,23,28,29)         -0.5457         estimate D2E/DX2                !
 ! D123  D(24,23,28,27)         -0.2366         estimate D2E/DX2                !
 ! D124  D(24,23,28,29)        179.9615         estimate D2E/DX2                !
 ! D125  D(23,24,25,26)          0.8728         estimate D2E/DX2                !
 ! D126  D(23,24,25,32)        179.9361         estimate D2E/DX2                !
 ! D127  D(33,24,25,26)       -179.0711         estimate D2E/DX2                !
 ! D128  D(33,24,25,32)         -0.0078         estimate D2E/DX2                !
 ! D129  D(24,25,26,27)         -0.3413         estimate D2E/DX2                !
 ! D130  D(24,25,26,31)        179.5352         estimate D2E/DX2                !
 ! D131  D(32,25,26,27)       -179.3983         estimate D2E/DX2                !
 ! D132  D(32,25,26,31)          0.4783         estimate D2E/DX2                !
 ! D133  D(25,26,27,28)         -0.4794         estimate D2E/DX2                !
 ! D134  D(25,26,27,30)       -179.7445         estimate D2E/DX2                !
 ! D135  D(31,26,27,28)        179.644          estimate D2E/DX2                !
 ! D136  D(31,26,27,30)          0.379          estimate D2E/DX2                !
 ! D137  D(26,27,28,23)          0.7692         estimate D2E/DX2                !
 ! D138  D(26,27,28,29)       -179.4307         estimate D2E/DX2                !
 ! D139  D(30,27,28,23)       -179.9606         estimate D2E/DX2                !
 ! D140  D(30,27,28,29)         -0.1606         estimate D2E/DX2                !
 ! D141  D(10,34,35,7)           0.0459         estimate D2E/DX2                !
 ! D142  D(10,34,35,36)        177.6429         estimate D2E/DX2                !
 ! D143  D(37,34,35,7)        -178.9507         estimate D2E/DX2                !
 ! D144  D(37,34,35,36)         -1.3536         estimate D2E/DX2                !
 ! D145  D(6,40,41,1)         -179.2419         estimate D2E/DX2                !
 ! D146  D(6,40,41,4)           -0.1301         estimate D2E/DX2                !
 ! D147  D(42,40,41,1)          -1.3212         estimate D2E/DX2                !
 ! D148  D(42,40,41,4)         177.7905         estimate D2E/DX2                !
 ! D149  D(3,43,44,45)          -0.5125         estimate D2E/DX2                !
 ! D150  D(3,43,44,47)        -178.856          estimate D2E/DX2                !
 ! D151  D(43,44,45,2)           0.4082         estimate D2E/DX2                !
 ! D152  D(43,44,45,46)        178.9707         estimate D2E/DX2                !
 ! D153  D(47,44,45,2)         178.621          estimate D2E/DX2                !
 ! D154  D(47,44,45,46)         -2.8165         estimate D2E/DX2                !
 ! D155  D(43,44,47,48)        157.584          estimate D2E/DX2                !
 ! D156  D(43,44,47,51)        -21.876          estimate D2E/DX2                !
 ! D157  D(45,44,47,48)        -20.4531         estimate D2E/DX2                !
 ! D158  D(45,44,47,51)        160.0869         estimate D2E/DX2                !
 ! D159  D(44,47,48,49)        179.8386         estimate D2E/DX2                !
 ! D160  D(51,47,48,49)         -0.5981         estimate D2E/DX2                !
 ! D161  D(44,47,51,50)        179.2809         estimate D2E/DX2                !
 ! D162  D(44,47,51,52)         -6.8152         estimate D2E/DX2                !
 ! D163  D(48,47,51,50)         -0.2238         estimate D2E/DX2                !
 ! D164  D(48,47,51,52)        173.6801         estimate D2E/DX2                !
 ! D165  D(47,48,49,50)          1.2601         estimate D2E/DX2                !
 ! D166  D(47,48,49,63)       -175.6399         estimate D2E/DX2                !
 ! D167  D(48,49,50,51)         -1.6171         estimate D2E/DX2                !
 ! D168  D(48,49,50,54)       -174.1062         estimate D2E/DX2                !
 ! D169  D(63,49,50,51)        174.4761         estimate D2E/DX2                !
 ! D170  D(63,49,50,54)          1.987          estimate D2E/DX2                !
 ! D171  D(48,49,63,64)       -159.8009         estimate D2E/DX2                !
 ! D172  D(48,49,63,71)         17.5395         estimate D2E/DX2                !
 ! D173  D(50,49,63,64)         24.3502         estimate D2E/DX2                !
 ! D174  D(50,49,63,71)       -158.3094         estimate D2E/DX2                !
 ! D175  D(49,50,51,47)          1.2467         estimate D2E/DX2                !
 ! D176  D(49,50,51,52)       -174.002          estimate D2E/DX2                !
 ! D177  D(54,50,51,47)        175.4229         estimate D2E/DX2                !
 ! D178  D(54,50,51,52)          0.1742         estimate D2E/DX2                !
 ! D179  D(49,50,54,53)        172.1317         estimate D2E/DX2                !
 ! D180  D(51,50,54,53)         -0.5304         estimate D2E/DX2                !
 ! D181  D(47,51,52,53)       -173.5246         estimate D2E/DX2                !
 ! D182  D(47,51,52,62)          5.3907         estimate D2E/DX2                !
 ! D183  D(50,51,52,53)          0.4298         estimate D2E/DX2                !
 ! D184  D(50,51,52,62)        179.3451         estimate D2E/DX2                !
 ! D185  D(51,52,53,54)         -0.8478         estimate D2E/DX2                !
 ! D186  D(51,52,53,55)        179.9066         estimate D2E/DX2                !
 ! D187  D(62,52,53,54)       -179.8181         estimate D2E/DX2                !
 ! D188  D(62,52,53,55)          0.9362         estimate D2E/DX2                !
 ! D189  D(52,53,54,50)          0.8045         estimate D2E/DX2                !
 ! D190  D(55,53,54,50)       -179.9299         estimate D2E/DX2                !
 ! D191  D(52,53,55,56)          0.0466         estimate D2E/DX2                !
 ! D192  D(52,53,55,57)       -179.8481         estimate D2E/DX2                !
 ! D193  D(54,53,55,56)       -179.1404         estimate D2E/DX2                !
 ! D194  D(54,53,55,57)          0.9648         estimate D2E/DX2                !
 ! D195  D(53,55,57,58)       -179.3823         estimate D2E/DX2                !
 ! D196  D(56,55,57,58)          0.7231         estimate D2E/DX2                !
 ! D197  D(55,57,58,59)        -61.017          estimate D2E/DX2                !
 ! D198  D(55,57,58,60)         59.7531         estimate D2E/DX2                !
 ! D199  D(55,57,58,61)        179.3287         estimate D2E/DX2                !
 ! D200  D(49,63,64,65)         11.9885         estimate D2E/DX2                !
 ! D201  D(49,63,64,67)       -177.536          estimate D2E/DX2                !
 ! D202  D(71,63,64,65)       -165.3254         estimate D2E/DX2                !
 ! D203  D(71,63,64,67)          5.1502         estimate D2E/DX2                !
 ! D204  D(63,64,67,68)       -153.7911         estimate D2E/DX2                !
 ! D205  D(63,64,67,69)         25.0861         estimate D2E/DX2                !
 ! D206  D(65,64,67,68)         17.4129         estimate D2E/DX2                !
 ! D207  D(65,64,67,69)       -163.7099         estimate D2E/DX2                !
 ! D208  D(64,67,69,70)         18.8918         estimate D2E/DX2                !
 ! D209  D(68,67,69,70)       -162.1929         estimate D2E/DX2                !
 --------------------------------------------------------------------------------
 Trust Radius=3.00D-01 FncErr=1.00D-07 GrdErr=1.00D-06
 Number of steps in this run=    448 maximum allowed number of steps=    474.
 GradGradGradGradGradGradGradGradGradGradGradGradGradGradGradGradGradGrad

 Stoichiometry    C41H28N2O4S4
 Framework group  C1[X(C41H28N2O4S4)]
 Deg. of freedom   231
 Full point group                 C1      NOp   1
 Largest Abelian subgroup         C1      NOp   1
 Largest concise Abelian subgroup C1      NOp   1
                         Standard orientation:                         
 ---------------------------------------------------------------------
 Center     Atomic      Atomic             Coordinates (Angstroms)
 Number     Number       Type             X           Y           Z
 ---------------------------------------------------------------------
      1          6           0       -0.012345   -2.980026   -0.407714
      2          6           0        1.181844   -2.045438   -0.222401
      3          6           0        0.752200   -0.744172    0.018210
      4          6           0       -0.678945   -0.712420    0.018957
      5         16           0       -1.952649    0.436098    0.234611
      6          6           0       -3.166989   -0.822632   -0.024199
      7          6           0       -4.590214   -0.504269    0.023730
      8          6           0       -5.077595    0.785619   -0.249982
      9          6           0       -6.432593    1.072378   -0.214590
     10          6           0       -7.369931    0.075781    0.102040
     11          7           0       -8.750787    0.360996    0.139017
     12          6           0       -9.214154    1.625471    0.604336
     13          6           0      -10.211451    2.315082   -0.096618
     14          1           0      -10.621524    1.883625   -1.001624
     15          6           0      -10.673568    3.542360    0.368124
     16          6           0      -10.140206    4.107439    1.525024
     17          6           0       -9.143025    3.426075    2.220855
     18          6           0       -8.687099    2.190479    1.772925
     19          1           0       -7.922238    1.658029    2.325222
     20          1           0       -8.725837    3.850586    3.127182
     21          1           0      -10.497770    5.066545    1.880804
     22          1           0      -11.446160    4.064263   -0.185371
     23          6           0       -9.697475   -0.610328   -0.296792
     24          6           0       -9.491944   -1.320371   -1.486903
     25          6           0      -10.419217   -2.268662   -1.906510
     26          6           0      -11.570826   -2.511165   -1.159718
     27          6           0      -11.782979   -1.798229    0.018937
     28          6           0      -10.852595   -0.860168    0.454890
     29          1           0      -11.016238   -0.314505    1.376158
     30          1           0      -12.672641   -1.980152    0.611433
     31          1           0      -12.294962   -3.245179   -1.493156
     32          1           0      -10.246749   -2.809387   -2.830429
     33          1           0       -8.605701   -1.124463   -2.078241
     34          6           0       -6.892132   -1.215381    0.383799
     35          6           0       -5.536667   -1.494682    0.344250
     36          1           0       -5.201094   -2.491617    0.604837
     37          1           0       -7.593124   -1.996191    0.650665
     38          1           0       -6.774959    2.072453   -0.448304
     39          1           0       -4.386677    1.572727   -0.531103
     40          6           0       -2.566632   -2.050285   -0.246603
     41          6           0       -1.159785   -1.989277   -0.220778
     42          1           0       -3.141310   -2.943633   -0.451656
     43         16           0        2.061887    0.356529    0.220661
     44          6           0        3.231933   -0.951498   -0.037351
     45          6           0        2.575347   -2.161542   -0.253040
     46          1           0        3.115099   -3.079791   -0.447226
     47          6           0        4.640379   -0.717411    0.023240
     48         16           0        5.733327   -2.034076    0.349049
     49          6           0        7.181931   -1.019341    0.262279
     50          6           0        6.783600    0.295128    0.016413
     51          6           0        5.371044    0.469850   -0.133365
     52          6           0        5.025084    1.801268   -0.517720
     53          6           0        6.119705    2.595367   -0.662240
     54         16           0        7.647231    1.775514   -0.315112
     55          6           0        6.069008    4.017068   -1.053967
     56          8           0        5.049654    4.622320   -1.285892
     57          8           0        7.303607    4.551046   -1.121623
     58          6           0        7.370376    5.942741   -1.483219
     59          1           0        6.944427    6.097414   -2.475575
     60          1           0        6.823812    6.548393   -0.759226
     61          1           0        8.428176    6.193112   -1.474066
     62          1           0        4.027359    2.172062   -0.700610
     63          6           0        8.432625   -1.681481    0.378047
     64          6           0        9.676085   -1.205887    0.713146
     65          6           0        9.888149    0.086727    1.261912
     66          7           0       10.053217    1.127542    1.738771
     67          6           0       10.879484   -2.097164    0.718285
     68          8           0       11.846749   -1.900768    1.397866
     69          8           0       10.816483   -3.192706   -0.094466
     70          1           0       10.132726   -3.071141   -0.762969
     71          1           0        8.379649   -2.754691    0.207370
     72          6           0       -0.027915   -3.601173   -1.821045
     73          1           0       -0.007959   -2.826361   -2.589895
     74          1           0        0.839207   -4.251575   -1.964513
     75          1           0       -0.928742   -4.203986   -1.963969
     76          6           0       -0.040437   -4.085156    0.669821
     77          1           0       -0.025893   -3.655350    1.673304
     78          1           0       -0.943515   -4.693214    0.569463
     79          1           0        0.824494   -4.745968    0.565774
 ---------------------------------------------------------------------
 Rotational constants (GHZ):      0.1106486      0.0127933      0.0117637
 Standard basis: 6-311G(d,p) (5D, 7F)
 There are  1169 symmetry adapted cartesian basis functions of A   symmetry.
 There are  1118 symmetry adapted basis functions of A   symmetry.
  1118 basis functions,  1912 primitive gaussians,  1169 cartesian basis functions
   192 alpha electrons      192 beta electrons
       nuclear repulsion energy      6387.6313192820 Hartrees.
 NAtoms=   79 NActive=   79 NUniq=   79 SFac= 1.00D+00 NAtFMM=   60 NAOKFM=T Big=T
 Integral buffers will be    131072 words long.
 Regular integral format.
 Two-electron integral symmetry is turned on.
 One-electron integrals computed using PRISM.
 NBasis=  1118 RedAO= T EigKep=  1.44D-04  NBF=  1118
 NBsUse=  1118 1.00D-06 EigRej= -1.00D+00 NBFU=  1118
 ExpMin= 7.71D-02 ExpMax= 9.34D+04 ExpMxC= 3.17D+03 IAcc=2 IRadAn=         4 AccDes= 0.00D+00
 Harris functional with IExCor=  402 and IRadAn=       4 diagonalized for initial guess.
 HarFok:  IExCor=  402 AccDes= 0.00D+00 IRadAn=         4 IDoV= 1 UseB2=F ITyADJ=14
 ICtDFT=  3500011 ScaDFX=  1.000000  1.000000  1.000000  1.000000
 FoFCou: FMM=F IPFlag=           0 FMFlag=      100000 FMFlg1=        2001
         NFxFlg=           0 DoJE=T BraDBF=F KetDBF=T FulRan=T
         wScrn=  0.000000 ICntrl=     500 IOpCl=  0 I1Cent=   200000004 NGrid=           0
         NMat0=    1 NMatS0=      1 NMatT0=    0 NMatD0=    1 NMtDS0=    0 NMtDT0=    0
 Petite list used in FoFCou.
 Requested convergence on RMS density matrix=1.00D-08 within 128 cycles.
 Requested convergence on MAX density matrix=1.00D-06.
 Requested convergence on             energy=1.00D-06.
 No special actions if energy rises.
 Integral accuracy reduced to 1.0D-05 until final iterations.
 Initial convergence to 1.0D-05 achieved.  Increase integral accuracy.
 SCF Done:  E(RB3LYP) =  -3582.92583623     A.U. after   17 cycles
            NFock= 17  Conv=0.47D-08     -V/T= 2.0028
 DoSCS=F DFT=T ScalE2(SS,OS)=  1.000000  1.000000
 ExpMin= 7.71D-02 ExpMax= 9.34D+04 ExpMxC= 3.17D+03 IAcc=3 IRadAn=         5 AccDes= 0.00D+00
 HarFok:  IExCor=  205 AccDes= 0.00D+00 IRadAn=         5 IDoV=-2 UseB2=F ITyADJ=14
 ICtDFT= 12500011 ScaDFX=  1.000000  1.000000  1.000000  1.000000
 Range of M.O.s used for correlation:    68  1118
 NBasis=  1118 NAE=   192 NBE=   192 NFC=    67 NFV=     0
 NROrb=   1051 NOA=   125 NOB=   125 NVA=   926 NVB=   926

 **** Warning!!: The largest alpha MO coefficient is  0.14583957D+02


 **** Warning!!: The smallest alpha delta epsilon is  0.76173212D-01

 Would need an additional        586642800000 words for in-memory AO integral storage.
 Orbital symmetries:
       Occupied  (A) (A) (A) (A) (A) (A) (A) (A) (A) (A) (A) (A)
                 (A) (A) (A) (A) (A) (A) (A) (A) (A) (A) (A) (A)
                 (A) (A) (A) (A) (A) (A) (A) (A) (A) (A) (A) (A)
                 (A) (A) (A) (A) (A) (A) (A) (A) (A) (A) (A) (A)
                 (A) (A) (A) (A) (A) (A) (A) (A) (A) (A) (A) (A)
                 (A) (A) (A) (A) (A) (A) (A) (A) (A) (A) (A) (A)
                 (A) (A) (A) (A) (A) (A) (A) (A) (A) (A) (A) (A)
                 (A) (A) (A) (A) (A) (A) (A) (A) (A) (A) (A) (A)
                 (A) (A) (A) (A) (A) (A) (A) (A) (A) (A) (A) (A)
                 (A) (A) (A) (A) (A) (A) (A) (A) (A) (A) (A) (A)
                 (A) (A) (A) (A) (A) (A) (A) (A) (A) (A) (A) (A)
                 (A) (A) (A) (A) (A) (A) (A) (A) (A) (A) (A) (A)
                 (A) (A) (A) (A) (A) (A) (A) (A) (A) (A) (A) (A)
                 (A) (A) (A) (A) (A) (A) (A) (A) (A) (A) (A) (A)
                 (A) (A) (A) (A) (A) (A) (A) (A) (A) (A) (A) (A)
                 (A) (A) (A) (A) (A) (A) (A) (A) (A) (A) (A) (A)
       Virtual   (A) (A) (A) (A) (A) (A) (A) (A) (A) (A) (A) (A)
                 (A) (A) (A) (A) (A) (A) (A) (A) (A) (A) (A) (A)
                 (A) (A) (A) (A) (A) (A) (A) (A) (A) (A) (A) (A)
                 (A) (A) (A) (A) (A) (A) (A) (A) (A) (A) (A) (A)
                 (A) (A) (A) (A) (A) (A) (A) (A) (A) (A) (A) (A)
                 (A) (A) (A) (A) (A) (A) (A) (A) (A) (A) (A) (A)
                 (A) (A) (A) (A) (A) (A) (A) (A) (A) (A) (A) (A)
                 (A) (A) (A) (A) (A) (A) (A) (A) (A) (A) (A) (A)
                 (A) (A) (A) (A) (A) (A) (A) (A) (A) (A) (A) (A)
                 (A) (A) (A) (A) (A) (A) (A) (A) (A) (A) (A) (A)
                 (A) (A) (A) (A) (A) (A) (A) (A) (A) (A) (A) (A)
                 (A) (A) (A) (A) (A) (A) (A) (A) (A) (A) (A) (A)
                 (A) (A) (A) (A) (A) (A) (A) (A) (A) (A) (A) (A)
                 (A) (A) (A) (A) (A) (A) (A) (A) (A) (A) (A) (A)
                 (A) (A) (A) (A) (A) (A) (A) (A) (A) (A) (A) (A)
                 (A) (A) (A) (A) (A) (A) (A) (A) (A) (A) (A) (A)
                 (A) (A) (A) (A) (A) (A) (A) (A) (A) (A) (A) (A)
                 (A) (A) (A) (A) (A) (A) (A) (A) (A) (A) (A) (A)
                 (A) (A) (A) (A) (A) (A) (A) (A) (A) (A) (A) (A)
                 (A) (A) (A) (A) (A) (A) (A) (A) (A) (A) (A) (A)
                 (A) (A) (A) (A) (A) (A) (A) (A) (A) (A) (A) (A)
                 (A) (A) (A) (A) (A) (A) (A) (A) (A) (A) (A) (A)
                 (A) (A) (A) (A) (A) (A) (A) (A) (A) (A) (A) (A)
                 (A) (A) (A) (A) (A) (A) (A) (A) (A) (A) (A) (A)
                 (A) (A) (A) (A) (A) (A) (A) (A) (A) (A) (A) (A)
                 (A) (A) (A) (A) (A) (A) (A) (A) (A) (A) (A) (A)
                 (A) (A) (A) (A) (A) (A) (A) (A) (A) (A) (A) (A)
                 (A) (A) (A) (A) (A) (A) (A) (A) (A) (A) (A) (A)
                 (A) (A) (A) (A) (A) (A) (A) (A) (A) (A) (A) (A)
                 (A) (A) (A) (A) (A) (A) (A) (A) (A) (A) (A) (A)
                 (A) (A) (A) (A) (A) (A) (A) (A) (A) (A) (A) (A)
                 (A) (A) (A) (A) (A) (A) (A) (A) (A) (A) (A) (A)
                 (A) (A) (A) (A) (A) (A) (A) (A) (A) (A) (A) (A)
                 (A) (A) (A) (A) (A) (A) (A) (A) (A) (A) (A) (A)
                 (A) (A) (A) (A) (A) (A) (A) (A) (A) (A) (A) (A)
                 (A) (A) (A) (A) (A) (A) (A) (A) (A) (A) (A) (A)
                 (A) (A) (A) (A) (A) (A) (A) (A) (A) (A) (A) (A)
                 (A) (A) (A) (A) (A) (A) (A) (A) (A) (A) (A) (A)
                 (A) (A) (A) (A) (A) (A) (A) (A) (A) (A) (A) (A)
                 (A) (A) (A) (A) (A) (A) (A) (A) (A) (A) (A) (A)
                 (A) (A) (A) (A) (A) (A) (A) (A) (A) (A) (A) (A)
                 (A) (A) (A) (A) (A) (A) (A) (A) (A) (A) (A) (A)
                 (A) (A) (A) (A) (A) (A) (A) (A) (A) (A) (A) (A)
                 (A) (A) (A) (A) (A) (A) (A) (A) (A) (A) (A) (A)
                 (A) (A) (A) (A) (A) (A) (A) (A) (A) (A) (A) (A)
                 (A) (A) (A) (A) (A) (A) (A) (A) (A) (A) (A) (A)
                 (A) (A) (A) (A) (A) (A) (A) (A) (A) (A) (A) (A)
                 (A) (A) (A) (A) (A) (A) (A) (A) (A) (A) (A) (A)
                 (A) (A) (A) (A) (A) (A) (A) (A) (A) (A) (A) (A)
                 (A) (A) (A) (A) (A) (A) (A) (A) (A) (A) (A) (A)
                 (A) (A) (A) (A) (A) (A) (A) (A) (A) (A) (A) (A)
                 (A) (A) (A) (A) (A) (A) (A) (A) (A) (A) (A) (A)
                 (A) (A) (A) (A) (A) (A) (A) (A) (A) (A) (A) (A)
                 (A) (A) (A) (A) (A) (A) (A) (A) (A) (A) (A) (A)
                 (A) (A) (A) (A) (A) (A) (A) (A) (A) (A) (A) (A)
                 (A) (A) (A) (A) (A) (A) (A) (A) (A) (A) (A) (A)
                 (A) (A) (A) (A) (A) (A) (A) (A) (A) (A) (A) (A)
                 (A) (A) (A) (A) (A) (A) (A) (A) (A) (A) (A) (A)
                 (A) (A) (A) (A) (A) (A) (A) (A) (A) (A) (A) (A)
                 (A) (A) (A) (A) (A) (A) (A) (A) (A) (A) (A) (A)
                 (A) (A) (A) (A) (A) (A) (A) (A) (A) (A) (A) (A)
                 (A) (A) (A) (A) (A) (A) (A) (A) (A) (A) (A) (A)
                 (A) (A) (A) (A) (A) (A) (A) (A) (A) (A) (A) (A)
                 (A) (A) (A) (A) (A) (A) (A) (A) (A) (A) (A) (A)
                 (A) (A) (A) (A) (A) (A) (A) (A) (A) (A) (A) (A)
                 (A) (A) (A) (A) (A) (A) (A) (A) (A) (A) (A) (A)
                 (A) (A) (A) (A) (A) (A) (A) (A) (A) (A) (A) (A)
                 (A) (A) (A) (A) (A) (A) (A) (A) (A) (A) (A) (A)
                 (A) (A) (A) (A) (A) (A) (A) (A) (A) (A) (A) (A)
                 (A) (A) (A) (A) (A) (A) (A) (A) (A) (A) (A) (A)
                 (A) (A) (A) (A) (A) (A) (A) (A) (A) (A) (A) (A)
                 (A) (A) (A) (A) (A) (A) (A) (A) (A) (A) (A) (A)
                 (A) (A) (A) (A) (A) (A) (A) (A) (A) (A) (A) (A)
                 (A) (A) (A) (A) (A) (A) (A) (A) (A) (A) (A) (A)
                 (A) (A) (A) (A) (A) (A) (A) (A) (A) (A) (A) (A)
                 (A) (A) (A) (A) (A) (A) (A) (A) (A) (A) (A) (A)
                 (A) (A) (A) (A) (A) (A) (A) (A) (A) (A) (A) (A)
                 (A) (A)
     8 initial guesses have been made.
 Convergence on wavefunction:    0.000001000000000
 Iteration     1 Dimension     8 NMult     0 NNew      8
 CISAX will form     8 AO SS matrices at one time.
 Iteration     2 Dimension    12 NMult     8 NNew      4
 Iteration     3 Dimension    16 NMult    12 NNew      4
 Iteration     4 Dimension    20 NMult    16 NNew      4
 Iteration     5 Dimension    24 NMult    20 NNew      4
 Iteration     6 Dimension    28 NMult    24 NNew      4
 Iteration     7 Dimension    32 NMult    28 NNew      4
 Iteration     8 Dimension    36 NMult    32 NNew      4
 Iteration     9 Dimension    40 NMult    36 NNew      4
 Iteration    10 Dimension    44 NMult    40 NNew      4
 Iteration    11 Dimension    48 NMult    44 NNew      4
 Iteration    12 Dimension    52 NMult    48 NNew      4
 ***********************************************************************
 Excited states from <AA,BB:AA,BB> singles matrix:
 ***********************************************************************
 
 Ground to excited state transition densities written to RWF  633
 Ground to excited state transition electric dipole moments (Au):
       state          X           Y           Z        Dip. S.      Osc.
         1        -5.2392     -0.0512     -0.1105     27.4638      1.2869
 Ground to excited state transition velocity dipole moments (Au):
       state          X           Y           Z        Dip. S.      Osc.
         1         0.3607      0.0048      0.0088      0.1302      1.2351
 Ground to excited state transition magnetic dipole moments (Au):
       state          X           Y           Z
         1         0.0069     -0.1902      1.0269
 Ground to excited state transition velocity quadrupole moments (Au):
       state          XX          YY          ZZ          XY          XZ          YZ
         1         0.7986      0.0305     -0.0086     -0.0363      0.2482     -0.1327
 <0|del|b> * <b|rxdel|0> + <0|del|b> * <b|delr+rdel|0>
 Rotatory Strengths (R) in cgs (10**-40 erg-esu-cm/Gauss)
       state          XX          YY          ZZ    R(velocity)    E-M Angle
         1        33.3593   -181.3455    254.7396     35.5845       88.39
 1/2[<0|r|b>*<b|rxdel|0> + (<0|rxdel|b>*<b|r|0>)*]
 Rotatory Strengths (R) in cgs (10**-40 erg-esu-cm/Gauss)
       state          XX          YY          ZZ     R(length)
         1        25.4530     -6.8879     80.2615     32.9422
  1/2[<0|del|b>*<b|r|0> + (<0|r|b>*<b|del|0>)*] (Au)
       state          X           Y           Z        Dip. S.   Osc.(frdel)
         1        -1.8899     -0.0002     -0.0010      1.8911      1.2607

 Excitation energies and oscillator strengths:
 
 Excited State   1:      Singlet-A      1.9126 eV  648.24 nm  f=1.2869  <S**2>=0.000
     192 -> 193        0.70293
 This state for optimization and/or second-order correction.
 Total Energy, E(TD-HF/TD-KS) =  -3582.85554815    
 Copying the excited state density for this state as the 1-particle RhoCI density.
 SavETr:  write IOETrn=   770 NScale= 10 NData=  16 NLR=1 NState=    1 LETran=      28.
          IDoAtm=11111111111111111111111111111111111111111111111111
          IDoAtm=11111111111111111111111111111
          Differentiating once with respect to electric field.
                with respect to dipole field.
          Differentiating once with respect to nuclear coordinates.
          There are     1 degrees of freedom in the 1st order CPHF.  IDoFFX=0 NUNeed=     1.
 LinEq1:  Iter=  0 NonCon=     1 RMS=5.02D-03 Max=1.79D+00 NDo=     1
 AX will form     1 AO Fock derivatives at one time.
 LinEq1:  Iter=  1 NonCon=     1 RMS=3.74D-03 Max=6.25D-01 NDo=     1
 LinEq1:  Iter=  2 NonCon=     1 RMS=2.41D-03 Max=5.06D-01 NDo=     1
 LinEq1:  Iter=  3 NonCon=     1 RMS=1.65D-03 Max=1.72D-01 NDo=     1
 LinEq1:  Iter=  4 NonCon=     1 RMS=1.33D-03 Max=1.56D-01 NDo=     1
 LinEq1:  Iter=  5 NonCon=     1 RMS=9.44D-04 Max=1.30D-01 NDo=     1
 LinEq1:  Iter=  6 NonCon=     1 RMS=8.66D-04 Max=1.33D-01 NDo=     1
 LinEq1:  Iter=  7 NonCon=     1 RMS=7.30D-04 Max=1.03D-01 NDo=     1
 LinEq1:  Iter=  8 NonCon=     1 RMS=5.32D-04 Max=6.70D-02 NDo=     1
 LinEq1:  Iter=  9 NonCon=     1 RMS=4.86D-04 Max=8.32D-02 NDo=     1
 LinEq1:  Iter= 10 NonCon=     1 RMS=3.63D-04 Max=4.81D-02 NDo=     1
 LinEq1:  Iter= 11 NonCon=     1 RMS=2.21D-04 Max=1.40D-02 NDo=     1
 LinEq1:  Iter= 12 NonCon=     1 RMS=1.71D-04 Max=1.53D-02 NDo=     1
 LinEq1:  Iter= 13 NonCon=     1 RMS=1.27D-04 Max=1.24D-02 NDo=     1
 LinEq1:  Iter= 14 NonCon=     1 RMS=8.29D-05 Max=5.62D-03 NDo=     1
 LinEq1:  Iter= 15 NonCon=     1 RMS=7.04D-05 Max=6.83D-03 NDo=     1
 LinEq1:  Iter= 16 NonCon=     1 RMS=5.33D-05 Max=3.21D-03 NDo=     1
 LinEq1:  Iter= 17 NonCon=     1 RMS=3.31D-05 Max=2.21D-03 NDo=     1
 LinEq1:  Iter= 18 NonCon=     1 RMS=2.38D-05 Max=1.52D-03 NDo=     1
 LinEq1:  Iter= 19 NonCon=     1 RMS=1.41D-05 Max=1.04D-03 NDo=     1
 LinEq1:  Iter= 20 NonCon=     1 RMS=8.11D-06 Max=6.08D-04 NDo=     1
 LinEq1:  Iter= 21 NonCon=     1 RMS=5.45D-06 Max=3.97D-04 NDo=     1
 LinEq1:  Iter= 22 NonCon=     1 RMS=4.15D-06 Max=2.36D-04 NDo=     1
 LinEq1:  Iter= 23 NonCon=     1 RMS=2.27D-06 Max=1.93D-04 NDo=     1
 LinEq1:  Iter= 24 NonCon=     1 RMS=1.62D-06 Max=1.77D-04 NDo=     1
 LinEq1:  Iter= 25 NonCon=     1 RMS=9.99D-07 Max=5.47D-05 NDo=     1
 LinEq1:  Iter= 26 NonCon=     1 RMS=7.69D-07 Max=5.54D-05 NDo=     1
 LinEq1:  Iter= 27 NonCon=     1 RMS=4.51D-07 Max=3.08D-05 NDo=     1
 LinEq1:  Iter= 28 NonCon=     1 RMS=3.09D-07 Max=2.58D-05 NDo=     1
 LinEq1:  Iter= 29 NonCon=     1 RMS=2.28D-07 Max=2.31D-05 NDo=     1
 LinEq1:  Iter= 30 NonCon=     1 RMS=1.18D-07 Max=8.21D-06 NDo=     1
 LinEq1:  Iter= 31 NonCon=     1 RMS=8.06D-08 Max=8.16D-06 NDo=     1
 LinEq1:  Iter= 32 NonCon=     1 RMS=4.89D-08 Max=4.38D-06 NDo=     1
 LinEq1:  Iter= 33 NonCon=     1 RMS=3.35D-08 Max=2.17D-06 NDo=     1
 LinEq1:  Iter= 34 NonCon=     1 RMS=1.78D-08 Max=1.17D-06 NDo=     1
 LinEq1:  Iter= 35 NonCon=     1 RMS=1.27D-08 Max=7.99D-07 NDo=     1
 LinEq1:  Iter= 36 NonCon=     1 RMS=6.45D-09 Max=3.44D-07 NDo=     1
 LinEq1:  Iter= 37 NonCon=     1 RMS=3.79D-09 Max=2.32D-07 NDo=     1
 LinEq1:  Iter= 38 NonCon=     1 RMS=2.04D-09 Max=1.37D-07 NDo=     1
 LinEq1:  Iter= 39 NonCon=     1 RMS=1.26D-09 Max=9.02D-08 NDo=     1
 LinEq1:  Iter= 40 NonCon=     1 RMS=7.36D-10 Max=3.82D-08 NDo=     1
 LinEq1:  Iter= 41 NonCon=     1 RMS=3.79D-10 Max=1.97D-08 NDo=     1
 LinEq1:  Iter= 42 NonCon=     1 RMS=2.06D-10 Max=1.17D-08 NDo=     1
 LinEq1:  Iter= 43 NonCon=     1 RMS=1.17D-10 Max=7.01D-09 NDo=     1
 LinEq1:  Iter= 44 NonCon=     1 RMS=7.02D-11 Max=4.07D-09 NDo=     1
 LinEq1:  Iter= 45 NonCon=     1 RMS=4.21D-11 Max=2.96D-09 NDo=     1
 LinEq1:  Iter= 46 NonCon=     1 RMS=2.44D-11 Max=1.13D-09 NDo=     1
 LinEq1:  Iter= 47 NonCon=     0 RMS=1.19D-11 Max=5.05D-10 NDo=     1
 Linear equations converged to 1.000D-10 1.000D-09 after    47 iterations.
 End of Minotr F.D. properties file   721 does not exist.
 End of Minotr F.D. properties file   722 does not exist.
 End of Minotr F.D. properties file   788 does not exist.

 **********************************************************************

            Population analysis using the SCF density.

 **********************************************************************

 Orbital symmetries:
       Occupied  (A) (A) (A) (A) (A) (A) (A) (A) (A) (A) (A) (A)
                 (A) (A) (A) (A) (A) (A) (A) (A) (A) (A) (A) (A)
                 (A) (A) (A) (A) (A) (A) (A) (A) (A) (A) (A) (A)
                 (A) (A) (A) (A) (A) (A) (A) (A) (A) (A) (A) (A)
                 (A) (A) (A) (A) (A) (A) (A) (A) (A) (A) (A) (A)
                 (A) (A) (A) (A) (A) (A) (A) (A) (A) (A) (A) (A)
                 (A) (A) (A) (A) (A) (A) (A) (A) (A) (A) (A) (A)
                 (A) (A) (A) (A) (A) (A) (A) (A) (A) (A) (A) (A)
                 (A) (A) (A) (A) (A) (A) (A) (A) (A) (A) (A) (A)
                 (A) (A) (A) (A) (A) (A) (A) (A) (A) (A) (A) (A)
                 (A) (A) (A) (A) (A) (A) (A) (A) (A) (A) (A) (A)
                 (A) (A) (A) (A) (A) (A) (A) (A) (A) (A) (A) (A)
                 (A) (A) (A) (A) (A) (A) (A) (A) (A) (A) (A) (A)
                 (A) (A) (A) (A) (A) (A) (A) (A) (A) (A) (A) (A)
                 (A) (A) (A) (A) (A) (A) (A) (A) (A) (A) (A) (A)
                 (A) (A) (A) (A) (A) (A) (A) (A) (A) (A) (A) (A)
       Virtual   (A) (A) (A) (A) (A) (A) (A) (A) (A) (A) (A) (A)
                 (A) (A) (A) (A) (A) (A) (A) (A) (A) (A) (A) (A)
                 (A) (A) (A) (A) (A) (A) (A) (A) (A) (A) (A) (A)
                 (A) (A) (A) (A) (A) (A) (A) (A) (A) (A) (A) (A)
                 (A) (A) (A) (A) (A) (A) (A) (A) (A) (A) (A) (A)
                 (A) (A) (A) (A) (A) (A) (A) (A) (A) (A) (A) (A)
                 (A) (A) (A) (A) (A) (A) (A) (A) (A) (A) (A) (A)
                 (A) (A) (A) (A) (A) (A) (A) (A) (A) (A) (A) (A)
                 (A) (A) (A) (A) (A) (A) (A) (A) (A) (A) (A) (A)
                 (A) (A) (A) (A) (A) (A) (A) (A) (A) (A) (A) (A)
                 (A) (A) (A) (A) (A) (A) (A) (A) (A) (A) (A) (A)
                 (A) (A) (A) (A) (A) (A) (A) (A) (A) (A) (A) (A)
                 (A) (A) (A) (A) (A) (A) (A) (A) (A) (A) (A) (A)
                 (A) (A) (A) (A) (A) (A) (A) (A) (A) (A) (A) (A)
                 (A) (A) (A) (A) (A) (A) (A) (A) (A) (A) (A) (A)
                 (A) (A) (A) (A) (A) (A) (A) (A) (A) (A) (A) (A)
                 (A) (A) (A) (A) (A) (A) (A) (A) (A) (A) (A) (A)
                 (A) (A) (A) (A) (A) (A) (A) (A) (A) (A) (A) (A)
                 (A) (A) (A) (A) (A) (A) (A) (A) (A) (A) (A) (A)
                 (A) (A) (A) (A) (A) (A) (A) (A) (A) (A) (A) (A)
                 (A) (A) (A) (A) (A) (A) (A) (A) (A) (A) (A) (A)
                 (A) (A) (A) (A) (A) (A) (A) (A) (A) (A) (A) (A)
                 (A) (A) (A) (A) (A) (A) (A) (A) (A) (A) (A) (A)
                 (A) (A) (A) (A) (A) (A) (A) (A) (A) (A) (A) (A)
                 (A) (A) (A) (A) (A) (A) (A) (A) (A) (A) (A) (A)
                 (A) (A) (A) (A) (A) (A) (A) (A) (A) (A) (A) (A)
                 (A) (A) (A) (A) (A) (A) (A) (A) (A) (A) (A) (A)
                 (A) (A) (A) (A) (A) (A) (A) (A) (A) (A) (A) (A)
                 (A) (A) (A) (A) (A) (A) (A) (A) (A) (A) (A) (A)
                 (A) (A) (A) (A) (A) (A) (A) (A) (A) (A) (A) (A)
                 (A) (A) (A) (A) (A) (A) (A) (A) (A) (A) (A) (A)
                 (A) (A) (A) (A) (A) (A) (A) (A) (A) (A) (A) (A)
                 (A) (A) (A) (A) (A) (A) (A) (A) (A) (A) (A) (A)
                 (A) (A) (A) (A) (A) (A) (A) (A) (A) (A) (A) (A)
                 (A) (A) (A) (A) (A) (A) (A) (A) (A) (A) (A) (A)
                 (A) (A) (A) (A) (A) (A) (A) (A) (A) (A) (A) (A)
                 (A) (A) (A) (A) (A) (A) (A) (A) (A) (A) (A) (A)
                 (A) (A) (A) (A) (A) (A) (A) (A) (A) (A) (A) (A)
                 (A) (A) (A) (A) (A) (A) (A) (A) (A) (A) (A) (A)
                 (A) (A) (A) (A) (A) (A) (A) (A) (A) (A) (A) (A)
                 (A) (A) (A) (A) (A) (A) (A) (A) (A) (A) (A) (A)
                 (A) (A) (A) (A) (A) (A) (A) (A) (A) (A) (A) (A)
                 (A) (A) (A) (A) (A) (A) (A) (A) (A) (A) (A) (A)
                 (A) (A) (A) (A) (A) (A) (A) (A) (A) (A) (A) (A)
                 (A) (A) (A) (A) (A) (A) (A) (A) (A) (A) (A) (A)
                 (A) (A) (A) (A) (A) (A) (A) (A) (A) (A) (A) (A)
                 (A) (A) (A) (A) (A) (A) (A) (A) (A) (A) (A) (A)
                 (A) (A) (A) (A) (A) (A) (A) (A) (A) (A) (A) (A)
                 (A) (A) (A) (A) (A) (A) (A) (A) (A) (A) (A) (A)
                 (A) (A) (A) (A) (A) (A) (A) (A) (A) (A) (A) (A)
                 (A) (A) (A) (A) (A) (A) (A) (A) (A) (A) (A) (A)
                 (A) (A) (A) (A) (A) (A) (A) (A) (A) (A) (A) (A)
                 (A) (A) (A) (A) (A) (A) (A) (A) (A) (A) (A) (A)
                 (A) (A) (A) (A) (A) (A) (A) (A) (A) (A) (A) (A)
                 (A) (A) (A) (A) (A) (A) (A) (A) (A) (A) (A) (A)
                 (A) (A) (A) (A) (A) (A) (A) (A) (A) (A) (A) (A)
                 (A) (A) (A) (A) (A) (A) (A) (A) (A) (A) (A) (A)
                 (A) (A) (A) (A) (A) (A) (A) (A) (A) (A) (A) (A)
                 (A) (A) (A) (A) (A) (A) (A) (A) (A) (A) (A) (A)
                 (A) (A) (A) (A) (A) (A) (A) (A) (A) (A) (A) (A)
                 (A) (A) (A) (A) (A) (A) (A) (A) (A) (A) (A) (A)
                 (A) (A) (A) (A) (A) (A) (A) (A) (A) (A) (A) (A)
                 (A) (A) (A) (A) (A) (A) (A) (A) (A) (A) (A) (A)
                 (A) (A) (A) (A) (A) (A) (A) (A) (A) (A) (A) (A)
                 (A) (A) (A) (A) (A) (A) (A) (A) (A) (A) (A) (A)
                 (A) (A) (A) (A) (A) (A) (A) (A) (A) (A) (A) (A)
                 (A) (A) (A) (A) (A) (A) (A) (A) (A) (A) (A) (A)
                 (A) (A) (A) (A) (A) (A) (A) (A) (A) (A) (A) (A)
                 (A) (A) (A) (A) (A) (A) (A) (A) (A) (A) (A) (A)
                 (A) (A) (A) (A) (A) (A) (A) (A) (A) (A) (A) (A)
                 (A) (A) (A) (A) (A) (A) (A) (A) (A) (A) (A) (A)
                 (A) (A) (A) (A) (A) (A) (A) (A) (A) (A) (A) (A)
                 (A) (A) (A) (A) (A) (A) (A) (A) (A) (A) (A) (A)
                 (A) (A) (A) (A) (A) (A) (A) (A) (A) (A) (A) (A)
                 (A) (A) (A) (A) (A) (A) (A) (A) (A) (A) (A) (A)
                 (A) (A) (A) (A) (A) (A) (A) (A) (A) (A) (A) (A)
                 (A) (A) (A) (A) (A) (A) (A) (A) (A) (A) (A) (A)
                 (A) (A)
 The electronic state is 1-A.
 Alpha  occ. eigenvalues --  -88.90685 -88.90558 -88.89679 -88.89397 -19.17625
 Alpha  occ. eigenvalues --  -19.16694 -19.11497 -19.10446 -14.35889 -14.30610
 Alpha  occ. eigenvalues --  -10.31451 -10.30940 -10.25543 -10.24113 -10.24027
 Alpha  occ. eigenvalues --  -10.24016 -10.23696 -10.23558 -10.23370 -10.23198
 Alpha  occ. eigenvalues --  -10.23061 -10.22898 -10.22872 -10.22843 -10.22821
 Alpha  occ. eigenvalues --  -10.22651 -10.22624 -10.21694 -10.20961 -10.20708
 Alpha  occ. eigenvalues --  -10.20489 -10.20425 -10.20271 -10.20058 -10.19624
 Alpha  occ. eigenvalues --  -10.19326 -10.19284 -10.18809 -10.18774 -10.18710
 Alpha  occ. eigenvalues --  -10.18679 -10.18621 -10.18609 -10.18568 -10.18546
 Alpha  occ. eigenvalues --  -10.18534 -10.18480 -10.18462 -10.18423 -10.18278
 Alpha  occ. eigenvalues --  -10.18196  -7.99315  -7.99148  -7.98277  -7.97944
 Alpha  occ. eigenvalues --   -5.95634  -5.95459  -5.95242  -5.95091  -5.94868
 Alpha  occ. eigenvalues --   -5.94703  -5.94586  -5.94280  -5.94217  -5.93887
 Alpha  occ. eigenvalues --   -5.93838  -5.93459  -1.11916  -1.10643  -1.03155
 Alpha  occ. eigenvalues --   -1.02730  -0.98373  -0.94325  -0.93505  -0.90827
 Alpha  occ. eigenvalues --   -0.90248  -0.88016  -0.87532  -0.87231  -0.85860
 Alpha  occ. eigenvalues --   -0.84992  -0.83973  -0.80609  -0.79309  -0.77804
 Alpha  occ. eigenvalues --   -0.77605  -0.77338  -0.76577  -0.76193  -0.76046
 Alpha  occ. eigenvalues --   -0.76022  -0.75131  -0.74617  -0.73422  -0.72938
 Alpha  occ. eigenvalues --   -0.71191  -0.70960  -0.67772  -0.65490  -0.64714
 Alpha  occ. eigenvalues --   -0.64484  -0.63747  -0.63095  -0.62476  -0.62338
 Alpha  occ. eigenvalues --   -0.61722  -0.61293  -0.59323  -0.58612  -0.57359
 Alpha  occ. eigenvalues --   -0.57257  -0.56555  -0.56422  -0.55691  -0.55247
 Alpha  occ. eigenvalues --   -0.55067  -0.54231  -0.52280  -0.51334  -0.50672
 Alpha  occ. eigenvalues --   -0.49983  -0.49783  -0.49597  -0.49397  -0.48609
 Alpha  occ. eigenvalues --   -0.48427  -0.47567  -0.47208  -0.46791  -0.46560
 Alpha  occ. eigenvalues --   -0.46375  -0.45994  -0.45680  -0.45653  -0.45035
 Alpha  occ. eigenvalues --   -0.44828  -0.44543  -0.44429  -0.44188  -0.44045
 Alpha  occ. eigenvalues --   -0.43771  -0.43625  -0.43577  -0.43062  -0.42215
 Alpha  occ. eigenvalues --   -0.41886  -0.41733  -0.41442  -0.41023  -0.40635
 Alpha  occ. eigenvalues --   -0.40180  -0.39989  -0.39416  -0.39295  -0.38802
 Alpha  occ. eigenvalues --   -0.38715  -0.38503  -0.38225  -0.38109  -0.37876
 Alpha  occ. eigenvalues --   -0.37790  -0.37270  -0.37205  -0.36884  -0.36661
 Alpha  occ. eigenvalues --   -0.36254  -0.36027  -0.35906  -0.35818  -0.35485
 Alpha  occ. eigenvalues --   -0.35308  -0.34803  -0.33800  -0.33121  -0.32632
 Alpha  occ. eigenvalues --   -0.32524  -0.31839  -0.30191  -0.29391  -0.28611
 Alpha  occ. eigenvalues --   -0.28265  -0.28006  -0.27916  -0.27712  -0.27407
 Alpha  occ. eigenvalues --   -0.27311  -0.26762  -0.26721  -0.26519  -0.23925
 Alpha  occ. eigenvalues --   -0.21185  -0.19264
 Alpha virt. eigenvalues --   -0.11647  -0.08056  -0.06671  -0.03916  -0.03611
 Alpha virt. eigenvalues --   -0.03205  -0.02560  -0.01953  -0.01617  -0.01458
 Alpha virt. eigenvalues --   -0.01121  -0.00118   0.00515   0.01091   0.01774
 Alpha virt. eigenvalues --    0.02076   0.02214   0.02751   0.02977   0.03347
 Alpha virt. eigenvalues --    0.03401   0.04281   0.04383   0.04520   0.04929
 Alpha virt. eigenvalues --    0.05432   0.05505   0.06275   0.06530   0.06676
 Alpha virt. eigenvalues --    0.06953   0.07089   0.07343   0.07738   0.08027
 Alpha virt. eigenvalues --    0.08288   0.08429   0.08826   0.09143   0.09639
 Alpha virt. eigenvalues --    0.10190   0.10513   0.10862   0.10978   0.11228
 Alpha virt. eigenvalues --    0.11289   0.11594   0.11624   0.11699   0.12019
 Alpha virt. eigenvalues --    0.12564   0.12679   0.12748   0.13249   0.13609
 Alpha virt. eigenvalues --    0.13791   0.13996   0.14297   0.14879   0.15148
 Alpha virt. eigenvalues --    0.15240   0.15648   0.16235   0.16385   0.16658
 Alpha virt. eigenvalues --    0.17072   0.18183   0.18649   0.19136   0.19667
 Alpha virt. eigenvalues --    0.19966   0.20769   0.21168   0.21450   0.21890
 Alpha virt. eigenvalues --    0.22221   0.22663   0.22923   0.23003   0.23439
 Alpha virt. eigenvalues --    0.23818   0.24477   0.25086   0.25200   0.25364
 Alpha virt. eigenvalues --    0.26118   0.26222   0.26302   0.26845   0.27166
 Alpha virt. eigenvalues --    0.27839   0.27995   0.28226   0.28456   0.28942
 Alpha virt. eigenvalues --    0.29193   0.29601   0.30072   0.30119   0.30282
 Alpha virt. eigenvalues --    0.30397   0.30809   0.30967   0.31619   0.31885
 Alpha virt. eigenvalues --    0.32685   0.32813   0.33344   0.33820   0.33936
 Alpha virt. eigenvalues --    0.34605   0.35073   0.35339   0.35457   0.35657
 Alpha virt. eigenvalues --    0.35994   0.36344   0.36464   0.36610   0.36842
 Alpha virt. eigenvalues --    0.37004   0.37170   0.37279   0.37434   0.37980
 Alpha virt. eigenvalues --    0.38156   0.38313   0.38660   0.39108   0.39194
 Alpha virt. eigenvalues --    0.39705   0.39899   0.40422   0.40654   0.40878
 Alpha virt. eigenvalues --    0.40929   0.41107   0.41343   0.41591   0.41758
 Alpha virt. eigenvalues --    0.41780   0.42121   0.42153   0.42490   0.42523
 Alpha virt. eigenvalues --    0.42709   0.42771   0.43066   0.43334   0.43399
 Alpha virt. eigenvalues --    0.43566   0.43717   0.44270   0.44524   0.44843
 Alpha virt. eigenvalues --    0.45275   0.45837   0.46062   0.46606   0.46698
 Alpha virt. eigenvalues --    0.46834   0.46909   0.47433   0.47503   0.47628
 Alpha virt. eigenvalues --    0.48363   0.48583   0.48857   0.49164   0.49821
 Alpha virt. eigenvalues --    0.50010   0.50241   0.50490   0.50718   0.51067
 Alpha virt. eigenvalues --    0.51688   0.51949   0.52385   0.52535   0.52896
 Alpha virt. eigenvalues --    0.53203   0.53311   0.53728   0.54049   0.54245
 Alpha virt. eigenvalues --    0.54504   0.54683   0.55101   0.55276   0.55740
[...]
 Alpha virt. eigenvalues --    0.62812   0.63459   0.63605   0.63808   0.64533
 Alpha virt. eigenvalues --    0.64649   0.64696   0.64858   0.65052   0.65506
 Alpha virt. eigenvalues --    0.65996   0.66145   0.66392   0.66550   0.67076
 Alpha virt. eigenvalues --    0.67223   0.67649   0.67931   0.68095   0.69435
 Alpha virt. eigenvalues --    0.69917   0.70086   0.70622   0.70820   0.71343
 Alpha virt. eigenvalues --    0.71552   0.71987   0.72405   0.72631   0.72779
 Alpha virt. eigenvalues --    0.73031   0.73576   0.73693   0.73859   0.74120
 Alpha virt. eigenvalues --    0.74888   0.74940   0.75781   0.76296   0.76358
 Alpha virt. eigenvalues --    0.76675   0.76686   0.77110   0.77573   0.77981
 Alpha virt. eigenvalues --    0.78187   0.78632   0.78767   0.79296   0.79800
 Alpha virt. eigenvalues --    0.80150   0.80619   0.80899   0.81011   0.81082
 Alpha virt. eigenvalues --    0.81349   0.81868   0.82323   0.82563   0.82911
 Alpha virt. eigenvalues --    0.83274   0.83766   0.83962   0.84055   0.84117
 Alpha virt. eigenvalues --    0.84777   0.85120   0.85571   0.85703   0.86075
 Alpha virt. eigenvalues --    0.86450   0.86773   0.87320   0.87636   0.88017
 Alpha virt. eigenvalues --    0.88116   0.88623   0.89047   0.89201   0.89372
 Alpha virt. eigenvalues --    0.90264   0.90550   0.90782   0.91019   0.91358
 Alpha virt. eigenvalues --    0.91883   0.92063   0.92421   0.92446   0.93388
 Alpha virt. eigenvalues --    0.93541   0.94420   0.94655   0.95135   0.95727
 Alpha virt. eigenvalues --    0.96112   0.96347   0.96641   0.96830   0.97515
 Alpha virt. eigenvalues --    0.98368   0.98628   0.99120   0.99182   0.99449
 Alpha virt. eigenvalues --    0.99883   1.00139   1.00555   1.00943   1.01484
 Alpha virt. eigenvalues --    1.01945   1.02405   1.02570   1.02924   1.03315
 Alpha virt. eigenvalues --    1.03736   1.04915   1.05111   1.05548   1.06125
 Alpha virt. eigenvalues --    1.06377   1.06801   1.07107   1.07618   1.07842
 Alpha virt. eigenvalues --    1.07935   1.08561   1.08766   1.09157   1.09559
 Alpha virt. eigenvalues --    1.09711   1.09905   1.10850   1.11484   1.11649
 Alpha virt. eigenvalues --    1.11761   1.12223   1.12255   1.12632   1.13049
 Alpha virt. eigenvalues --    1.13463   1.14289   1.14809   1.15579   1.16237
 Alpha virt. eigenvalues --    1.17445   1.18014   1.18444   1.18808   1.20852
 Alpha virt. eigenvalues --    1.21487   1.21937   1.22681   1.24050   1.24784
 Alpha virt. eigenvalues --    1.25177   1.25331   1.25638   1.26543   1.26757
 Alpha virt. eigenvalues --    1.27081   1.27833   1.29170   1.30252   1.31189
 Alpha virt. eigenvalues --    1.32039   1.33083   1.33557   1.34154   1.34596
 Alpha virt. eigenvalues --    1.34989   1.35023   1.35621   1.36252   1.37264
 Alpha virt. eigenvalues --    1.37665   1.38411   1.38556   1.38822   1.39109
 Alpha virt. eigenvalues --    1.39419   1.40757   1.41461   1.42499   1.42554
 Alpha virt. eigenvalues --    1.42653   1.43357   1.43933   1.44327   1.44654
 Alpha virt. eigenvalues --    1.44748   1.44839   1.45355   1.45482   1.45641
 Alpha virt. eigenvalues --    1.45895   1.46392   1.46944   1.47302   1.47400
 Alpha virt. eigenvalues --    1.47890   1.48213   1.48611   1.48792   1.49386
 Alpha virt. eigenvalues --    1.49593   1.49776   1.50262   1.50891   1.51765
 Alpha virt. eigenvalues --    1.51919   1.52203   1.52638   1.53091   1.53595
 Alpha virt. eigenvalues --    1.54265   1.54338   1.54616   1.54968   1.55077
 Alpha virt. eigenvalues --    1.55758   1.56273   1.56524   1.56753   1.56803
 Alpha virt. eigenvalues --    1.57166   1.57404   1.57593   1.57953   1.58179
 Alpha virt. eigenvalues --    1.58455   1.58734   1.59651   1.59960   1.60123
 Alpha virt. eigenvalues --    1.60595   1.61182   1.62197   1.62917   1.63023
 Alpha virt. eigenvalues --    1.63115   1.63330   1.63878   1.64136   1.64461
 Alpha virt. eigenvalues --    1.64757   1.64803   1.65319   1.65431   1.65789
 Alpha virt. eigenvalues --    1.66043   1.66417   1.66758   1.67476   1.67566
 Alpha virt. eigenvalues --    1.68188   1.68485   1.68949   1.69103   1.69611
 Alpha virt. eigenvalues --    1.70742   1.71230   1.71794   1.71848   1.72357
 Alpha virt. eigenvalues --    1.72629   1.72773   1.72927   1.73016   1.73161
 Alpha virt. eigenvalues --    1.73563   1.74831   1.75307   1.76022   1.76251
 Alpha virt. eigenvalues --    1.76503   1.76736   1.77163   1.77513   1.78111
 Alpha virt. eigenvalues --    1.78515   1.78674   1.78889   1.80171   1.80279
 Alpha virt. eigenvalues --    1.80816   1.81131   1.81679   1.82047   1.83418
 Alpha virt. eigenvalues --    1.83435   1.84086   1.84753   1.86081   1.86574
 Alpha virt. eigenvalues --    1.87167   1.87279   1.88112   1.88553   1.88666
 Alpha virt. eigenvalues --    1.88897   1.89322   1.89448   1.89685   1.90126
 Alpha virt. eigenvalues --    1.90175   1.90541   1.90793   1.90955   1.91047
 Alpha virt. eigenvalues --    1.91317   1.91895   1.92041   1.92153   1.92465
 Alpha virt. eigenvalues --    1.93469   1.93556   1.94705   1.94989   1.95116
 Alpha virt. eigenvalues --    1.95801   1.95894   1.96136   1.96557   1.97173
 Alpha virt. eigenvalues --    1.98026   1.98118   1.98589   1.98700   1.99637
 Alpha virt. eigenvalues --    1.99884   2.00195   2.00544   2.00752   2.01011
 Alpha virt. eigenvalues --    2.01271   2.02638   2.02943   2.04486   2.04546
 Alpha virt. eigenvalues --    2.05242   2.05590   2.06274   2.06348   2.06586
 Alpha virt. eigenvalues --    2.07232   2.07366   2.07830   2.09115   2.09408
 Alpha virt. eigenvalues --    2.09886   2.10365   2.10669   2.10795   2.10985
 Alpha virt. eigenvalues --    2.11378   2.11904   2.12073   2.13279   2.14538
 Alpha virt. eigenvalues --    2.15374   2.15668   2.16138   2.16227   2.17168
 Alpha virt. eigenvalues --    2.18669   2.19521   2.20219   2.21380   2.22754
 Alpha virt. eigenvalues --    2.23138   2.24225   2.24861   2.25352   2.25943
 Alpha virt. eigenvalues --    2.27068   2.27376   2.27877   2.27958   2.28689
 Alpha virt. eigenvalues --    2.29592   2.29965   2.30711   2.31042   2.31857
 Alpha virt. eigenvalues --    2.32538   2.32764   2.33792   2.33970   2.34477
 Alpha virt. eigenvalues --    2.36263   2.36373   2.36793   2.37205   2.37514
 Alpha virt. eigenvalues --    2.37933   2.39070   2.39963   2.40259   2.41838
 Alpha virt. eigenvalues --    2.42380   2.42687   2.43174   2.43716   2.44806
 Alpha virt. eigenvalues --    2.45169   2.45512   2.46920   2.47665   2.48010
 Alpha virt. eigenvalues --    2.49073   2.49527   2.49672   2.50820   2.51457
 Alpha virt. eigenvalues --    2.51707   2.51938   2.52068   2.52510   2.52987
 Alpha virt. eigenvalues --    2.53391   2.54628   2.55435   2.55971   2.56968
 Alpha virt. eigenvalues --    2.57591   2.57826   2.58046   2.58549   2.58937
 Alpha virt. eigenvalues --    2.59059   2.59386   2.59619   2.60177   2.60612
 Alpha virt. eigenvalues --    2.60928   2.61148   2.61635   2.61821   2.62105
 Alpha virt. eigenvalues --    2.62240   2.63025   2.63232   2.63475   2.64796
 Alpha virt. eigenvalues --    2.64898   2.65009   2.65604   2.65715   2.65809
 Alpha virt. eigenvalues --    2.66298   2.66625   2.67265   2.67457   2.68193
 Alpha virt. eigenvalues --    2.68633   2.69270   2.69757   2.70139   2.70771
 Alpha virt. eigenvalues --    2.71651   2.72178   2.73007   2.73094   2.74036
 Alpha virt. eigenvalues --    2.75348   2.76160   2.77277   2.77681   2.78115
 Alpha virt. eigenvalues --    2.78191   2.78679   2.79441   2.80276   2.80602
 Alpha virt. eigenvalues --    2.81484   2.81640   2.82188   2.82890   2.83713
 Alpha virt. eigenvalues --    2.83868   2.84196   2.84521   2.84855   2.85187
 Alpha virt. eigenvalues --    2.85550   2.85941   2.86199   2.87576   2.88016
 Alpha virt. eigenvalues --    2.88298   2.88661   2.88883   2.89275   2.89411
 Alpha virt. eigenvalues --    2.89990   2.90351   2.90688   2.90814   2.92164
 Alpha virt. eigenvalues --    2.92600   2.92965   2.93305   2.94410   2.95601
 Alpha virt. eigenvalues --    2.95769   2.96174   2.96304   2.98346   2.99338
 Alpha virt. eigenvalues --    2.99584   3.00129   3.01473   3.02623   3.03217
 Alpha virt. eigenvalues --    3.05335   3.05641   3.06490   3.06545   3.06998
 Alpha virt. eigenvalues --    3.07305   3.08795   3.08955   3.09237   3.10885
 Alpha virt. eigenvalues --    3.11935   3.12941   3.14175   3.14566   3.15881
 Alpha virt. eigenvalues --    3.16602   3.17144   3.17411   3.18413   3.19008
 Alpha virt. eigenvalues --    3.19468   3.20255   3.21839   3.22504   3.24746
 Alpha virt. eigenvalues --    3.25083   3.25837   3.26812   3.28415   3.30755
 Alpha virt. eigenvalues --    3.32429   3.33784   3.33959   3.34819   3.34882
 Alpha virt. eigenvalues --    3.35330   3.35662   3.36692   3.37598   3.37933
 Alpha virt. eigenvalues --    3.40723   3.41626   3.42216   3.42320   3.44715
 Alpha virt. eigenvalues --    3.45843   3.46481   3.46660   3.47178   3.48339
 Alpha virt. eigenvalues --    3.48674   3.49453   3.50454   3.52220   3.53529
 Alpha virt. eigenvalues --    3.55078   3.56646   3.58541   3.60180   3.61660
 Alpha virt. eigenvalues --    3.62884   3.62965   3.67464   3.68872   3.74102
 Alpha virt. eigenvalues --    3.74470   3.74751   3.76242   3.77576   3.77947
 Alpha virt. eigenvalues --    3.78487   3.80692   3.80816   3.82895   3.84438
 Alpha virt. eigenvalues --    3.84984   3.89466   3.90547   3.93502   3.94759
 Alpha virt. eigenvalues --    3.95579   3.96019   3.96287   3.97057   3.97589
 Alpha virt. eigenvalues --    4.01733   4.02750   4.03842   4.06981   4.09827
 Alpha virt. eigenvalues --    4.10657   4.11234   4.11673   4.12106   4.12885
 Alpha virt. eigenvalues --    4.15119   4.15696   4.16229   4.22854   4.25886
 Alpha virt. eigenvalues --    4.29143   4.32835   4.48770   4.52967   4.55025
 Alpha virt. eigenvalues --    4.58361   4.68864   4.82216   4.82621   4.82956
 Alpha virt. eigenvalues --    4.83656   4.83713   4.91167   4.91987   5.00811
 Alpha virt. eigenvalues --    5.04927   5.06644   5.10179   5.21997   5.27210
 Alpha virt. eigenvalues --    5.54255   5.61280   5.76543   5.77497   7.75580
 Alpha virt. eigenvalues --    7.77474   7.80626   7.81730  17.16222  17.17670
 Alpha virt. eigenvalues --   17.19438  17.20010  17.40536  17.43659  17.44749
 Alpha virt. eigenvalues --   17.48141  17.49768  17.50490  17.54587  17.55283
 Alpha virt. eigenvalues --   23.34044  23.42974  23.48843  23.54186  23.54241
 Alpha virt. eigenvalues --   23.59204  23.64698  23.70724  23.73666  23.78627
 Alpha virt. eigenvalues --   23.79543  23.80683  23.82532  23.85955  23.87357
 Alpha virt. eigenvalues --   23.88934  23.90714  23.91217  23.92066  23.92313
 Alpha virt. eigenvalues --   23.92377  23.92674  23.94686  23.98580  23.99090
 Alpha virt. eigenvalues --   23.99964  24.00679  24.01962  24.04947  24.05061
 Alpha virt. eigenvalues --   24.09260  24.09384  24.09505  24.10089  24.10832
 Alpha virt. eigenvalues --   24.11546  24.12034  24.16687  24.18162  24.18455
 Alpha virt. eigenvalues --   24.44859  35.63752  35.83426  49.84208  49.86149
 Alpha virt. eigenvalues --   49.99454  50.01419 188.87414 188.89149 188.91995
 Alpha virt. eigenvalues --  188.92935
          Condensed to atoms (all electrons):
 Mulliken charges:
               1
     1  C   -0.276840
     2  C    0.020979
     3  C   -0.187173
     4  C   -0.199328
     5  S    0.312930
     6  C   -0.284103
     7  C    0.008885
     8  C   -0.088965
     9  C   -0.088632
    10  C    0.127102
    11  N   -0.492013
    12  C    0.107804
    13  C   -0.084892
    14  H    0.114372
    15  C   -0.090173
    16  C   -0.093591
    17  C   -0.089912
    18  C   -0.088020
    19  H    0.113330
    20  H    0.098563
    21  H    0.096104
    22  H    0.098381
    23  C    0.105350
    24  C   -0.087772
    25  C   -0.090213
    26  C   -0.093820
    27  C   -0.090111
    28  C   -0.083153
    29  H    0.114418
    30  H    0.098435
    31  H    0.095770
    32  H    0.097842
    33  H    0.113017
    34  C   -0.085082
    35  C   -0.035545
    36  H    0.090981
    37  H    0.115381
    38  H    0.117022
    39  H    0.105101
    40  C    0.020359
    41  C    0.031513
    42  H    0.091619
    43  S    0.360557
    44  C   -0.227308
    45  C   -0.009816
    46  H    0.105933
    47  C   -0.196339
    48  S    0.331820
    49  C   -0.322023
    50  C   -0.079082
    51  C    0.031376
    52  C    0.038933
    53  C   -0.364169
    54  S    0.396615
    55  C    0.452850
    56  O   -0.345074
    57  O   -0.333660
    58  C   -0.110749
    59  H    0.123816
    60  H    0.125975
    61  H    0.129682
    62  H    0.132441
    63  C    0.003140
    64  C   -0.179120
    65  C    0.057446
    66  N   -0.222348
    67  C    0.423242
    68  O   -0.294692
    69  O   -0.306453
    70  H    0.238472
    71  H    0.102836
    72  C   -0.210476
    73  H    0.123157
    74  H    0.110267
    75  H    0.111313
    76  C   -0.210115
    77  H    0.124221
    78  H    0.110746
    79  H    0.110671
 Sum of Mulliken charges =   0.00000
 Mulliken charges with hydrogens summed into heavy atoms:
               1
     1  C   -0.276840
     2  C    0.020979
     3  C   -0.187173
     4  C   -0.199328
     5  S    0.312930
     6  C   -0.284103
     7  C    0.008885
     8  C    0.016136
     9  C    0.028391
    10  C    0.127102
    11  N   -0.492013
    12  C    0.107804
    13  C    0.029480
    15  C    0.008208
    16  C    0.002513
    17  C    0.008652
    18  C    0.025310
    23  C    0.105350
    24  C    0.025245
    25  C    0.007629
    26  C    0.001950
    27  C    0.008323
    28  C    0.031265
    34  C    0.030299
    35  C    0.055436
    40  C    0.111978
    41  C    0.031513
    43  S    0.360557
    44  C   -0.227308
    45  C    0.096117
    47  C   -0.196339
    48  S    0.331820
    49  C   -0.322023
    50  C   -0.079082
    51  C    0.031376
    52  C    0.171373
    53  C   -0.364169
    54  S    0.396615
    55  C    0.452850
    56  O   -0.345074
    57  O   -0.333660
    58  C    0.268724
    63  C    0.105976
    64  C   -0.179120
    65  C    0.057446
    66  N   -0.222348
    67  C    0.423242
    68  O   -0.294692
    69  O   -0.067982
    72  C    0.134261
    76  C    0.135523
 Electronic spatial extent (au):  <R**2>=          82050.6900
 Charge=              0.0000 electrons
 Dipole moment (field-independent basis, Debye):
    X=            -15.1878    Y=             -2.7034    Z=             -3.0530  Tot=             15.7257
 Quadrupole moment (field-independent basis, Debye-Ang):
   XX=           -440.1141   YY=           -293.2917   ZZ=           -324.6460
   XY=             10.8800   XZ=            -36.2324   YZ=              0.8096
 Traceless Quadrupole moment (field-independent basis, Debye-Ang):
   XX=            -87.4302   YY=             59.3922   ZZ=             28.0379
   XY=             10.8800   XZ=            -36.2324   YZ=              0.8096
 Octapole moment (field-independent basis, Debye-Ang**2):
  XXX=          -2518.8370  YYY=             95.8076  ZZZ=            -21.7672  XYY=             38.1376
  XXY=            238.4891  XXZ=           -413.6887  XZZ=             -8.3681  YZZ=             10.8265
  YYZ=            -20.2430  XYZ=            -60.5254
 Hexadecapole moment (field-independent basis, Debye-Ang**3):
 XXXX=        -123055.3752 YYYY=          -9791.5084 ZZZZ=          -1792.4405 XXXY=           3290.1003
 XXXZ=          -4055.3556 YYYX=            948.7084 YYYZ=           -100.0960 ZZZX=           -154.5776
 ZZZY=             10.8666 XXYY=         -17308.2683 XXZZ=         -17290.5555 YYZZ=          -1990.8796
 XXYZ=            160.8263 YYXZ=           -352.3174 ZZXY=             13.6882
 N-N= 6.389727406523D+03 E-N=-2.119612502202D+04  KE= 3.572767884328D+03
 1\1\GINC-N067\FOpt\RB3LYP TD-FC\6-311G(d,p)\C41H28N2O4S4\R2532\26-May-
 2021\0\\#N TD(NStates=1,root=1) B3lYP/6-311G(d,p) OPT Guess=Sparse\\na
 me\\0,1\C,-0.0185518538,-3.0300818974,0.1074578268\C,1.1658755502,-2.0
 652845135,0.031952616\C,0.7310526543,-0.7486737886,-0.0510863311\C,-0.
 6962772545,-0.7311442123,-0.0374291068\S,-1.9627049903,0.435907418,-0.
 0985903576\C,-3.1896970287,-0.8480990365,0.0052527211\C,-4.6000250114,
 -0.5291851718,0.0073437418\C,-5.074467454,0.7809638085,-0.2357704684\C
 ,-6.423335497,1.0795835436,-0.2328837582\C,-7.3768679421,0.0768419382,
 0.0117096477\N,-8.7580823513,0.3755880936,0.0148923336\C,-9.2222886824
 ,1.5824103523,0.5952296534\C,-10.2424210961,2.320889073,-0.0260273052\
 H,-10.6642627439,1.9704084107,-0.9594827198\C,-10.6924515181,3.5025624
 992,0.5479780063\C,-10.1344319626,3.968314908,1.7388420893\C,-9.118961
 5584,3.2374788353,2.3560161482\C,-8.6633893961,2.051567638,1.795211752
 5\H,-7.8870600755,1.4766568037,2.2840488704\H,-8.6869292109,3.58650431
 86,3.2865479578\H,-10.4868380949,4.8921935204,2.1813578522\H,-11.47365
 87674,4.0698888596,0.0557617587\C,-9.6791908647,-0.5312130345,-0.56721
 29837\C,-9.3669627107,-1.1792177977,-1.77316342\C,-10.2700609678,-2.07
 17358162,-2.33589656\C,-11.4923074134,-2.3283286813,-1.7143806906\C,-1
 1.8051692082,-1.683642836,-0.5173556161\C,-10.9086372202,-0.7930525939
 ,0.058629026\H,-11.1456873947,-0.3076954061,0.9970254916\H,-12.7477239
 533,-1.8853021214,-0.0219888359\H,-12.1942125632,-3.0237700836,-2.1585
 558831\H,-10.0233765946,-2.5594358799,-3.2716936258\H,-8.4261395375,-0
 .9672011915,-2.2651463082\C,-6.9250695778,-1.2332630746,0.2563615441\C
 ,-5.5760535505,-1.5242609457,0.2561931511\H,-5.2652048595,-2.536878248
 3,0.4785731764\H,-7.6441918287,-2.0146233673,0.4689597959\H,-6.7505618
 104,2.0905813191,-0.4411733738\H,-4.370012438,1.5748745341,-0.45304104
 65\C,-2.576952463,-2.09630738,0.0806959104\C,-1.1794035919,-2.03671307
 2,0.0571374774\H,-3.1429439001,-3.0169304708,0.1393377375\S,2.04600162
 72,0.3794969387,-0.1337744785\C,3.2187575257,-0.9570065984,-0.06075932
 65\C,2.5612236889,-2.1919346821,0.0266329363\H,3.1011836036,-3.1275736
 992,0.0809604048\C,4.6187433789,-0.7174170121,-0.0779857561\S,5.733388
 2875,-2.0653598666,0.1082061298\C,7.1797549297,-1.0376525696,-0.002765
 3777\C,6.7655073204,0.2946336704,-0.1538598439\C,5.3515367818,0.480292
 9478,-0.2204041829\C,5.0008935947,1.8330114364,-0.4876631375\C,6.09791
 4248,2.6375649406,-0.6389232766\S,7.6242782866,1.7866680573,-0.4342206
 298\C,6.0347640736,4.0781847912,-0.9170544873\O,5.0090331615,4.7089493
 757,-1.0438437719\O,7.2689978776,4.6194768859,-1.0185341634\C,7.315508
 6188,6.0315910366,-1.2759097309\H,6.8301844065,6.2631063645,-2.2256302
 567\H,6.8157885143,6.5815915222,-0.4768286032\H,8.3723967206,6.2849667
 666,-1.3126367998\H,4.0008221478,2.2290878361,-0.581061238\C,8.4284841
 567,-1.6956179684,-0.0014988612\C,9.7091394844,-1.2286964871,0.2515407
 919\C,9.9684004589,0.018082059,0.8733180752\N,10.1750174288,1.02418344
 23,1.4088233169\C,10.9036033042,-2.0959103432,0.0651751247\O,11.961265
 4893,-1.9179364567,0.6074312796\O,10.740784817,-3.1660790761,-0.776529
 795\H,9.9645510938,-3.0276074243,-1.3308682089\H,8.3601216719,-2.76477
 48628,-0.1926893073\C,-0.0374949189,-3.9878115892,-1.1026459918\H,-0.0
 475650054,-3.4311751166,-2.0417583114\H,0.8469233872,-4.6308080544,-1.
 095198045\H,-0.922391162,-4.6300109889,-1.0721276383\C,-0.0077573567,-
 3.8263603848,1.4292736675\H,0.0032660485,-3.1552622108,2.2902576701\H,
 -0.892152091,-4.4659064114,1.5007234779\H,0.8774111327,-4.4659865217,1
 .4828164496\\Version=ES64L-G09RevD.01\State=1-A\HF=-3582.9233404\RMSD=
 4.471e-09\RMSF=2.506e-06\Dipole=-13.7106477,-0.609077,-1.1231301\PG=C0
 1 [X(C41H28N2O4S4)]\\@


 IT IS A CAPITAL MISTAKE TO THEORIZE BEFORE ONE HAS
 DATA.  INSENSIBLY ONE BEGINS TO TWIST FACTS TO SUIT
 THEORIES RATHER THAN THEORIES TO SUIT FACTS.

                                         -- SHERLOCK HOLMES
 Job cpu time:       9 days  1 hours 53 minutes 14.0 seconds.
 File lengths (MBytes):  RWF=   1328 Int=      0 D2E=      0 Chk=    165 Scr=      1
 Normal termination of Gaussian 09 at Wed May 26 11:35:18 2021.
