 Entering Gaussian System, Link 0=/usr/local/apps//g09/g09
 Input=mexc.com
 Output=mexc.out
 Initial command:
 /usr/local/apps//g09/l1.exe "/tmp/bnp.485620.sequoia/Gau-27582.inp" -scrdir="/tmp/bnp.485620.sequoia/"
 Entering Link 1 = /usr/local/apps//g09/l1.exe PID=     27583.
  
 Copyright (c) 1988,1990,1992,1993,1995,1998,2003,2009,2013,
            Gaussian, Inc.  All Rights Reserved.
  
 This is part of the Gaussian(R) 09 program.  It is based on
 the Gaussian(R) 03 system (copyright 2003, Gaussian, Inc.),
 the Gaussian(R) 98 system (copyright 1998, Gaussian, Inc.),
 the Gaussian(R) 94 system (copyright 1995, Gaussian, Inc.),
 the Gaussian 92(TM) system (copyright 1992, Gaussian, Inc.),
 the Gaussian 90(TM) system (copyright 1990, Gaussian, Inc.),
 the Gaussian 88(TM) system (copyright 1988, Gaussian, Inc.),
 the Gaussian 86(TM) system (copyright 1986, Carnegie Mellon
 University), and the Gaussian 82(TM) system (copyright 1983,
 Carnegie Mellon University). Gaussian is a federally registered
 trademark of Gaussian, Inc.
  
 This software contains proprietary and confidential information,
 including trade secrets, belonging to Gaussian, Inc.
  
 This software is provided under written license and may be
 used, copied, transmitted, or stored only in accord with that
 written license.
  
 The following legend is applicable only to US Government
 contracts under FAR:
  
                    RESTRICTED RIGHTS LEGEND
  
 Use, reproduction and disclosure by the US Government is
 subject to restrictions as set forth in subparagraphs (a)
 and (c) of the Commercial Computer Software - Restricted
 Rights clause in FAR 52.227-19.
  
 Gaussian, Inc.
 340 Quinnipiac St., Bldg. 40, Wallingford CT 06492
  
  
 ---------------------------------------------------------------
 Warning -- This program may not be used in any manner that
 competes with the business of Gaussian, Inc. or will provide
 assistance to any competitor of Gaussian, Inc.  The licensee
 of this program is prohibited from giving any competitor of
 Gaussian, Inc. access to this program.  By using this program,
 the user acknowledges that Gaussian, Inc. is engaged in the
 business of creating and licensing software in the field of
 computational chemistry and represents and warrants to the
 licensee that it is not a competitor of Gaussian, Inc. and that
 it will not use this program in any manner prohibited above.
 ---------------------------------------------------------------
  

 Cite this work as:
 Gaussian 09, Revision D.01,
 M. J. Frisch, G. W. Trucks, H. B. Schlegel, G. E. Scuseria, 
 M. A. Robb, J. R. Cheeseman, G. Scalmani, V. Barone, B. Mennucci, 
 G. A. Petersson, H. Nakatsuji, M. Caricato, X. Li, H. P. Hratchian, 
 A. F. Izmaylov, J. Bloino, G. Zheng, J. L. Sonnenberg, M. Hada, 
 M. Ehara, K. Toyota, R. Fukuda, J. Hasegawa, M. Ishida, T. Nakajima, 
 Y. Honda, O. Kitao, H. Nakai, T. Vreven, J. A. Montgomery, Jr., 
 J. E. Peralta, F. Ogliaro, M. Bearpark, J. J. Heyd, E. Brothers, 
 K. N. Kudin, V. N. Staroverov, T. Keith, R. Kobayashi, J. Normand, 
 K. Raghavachari, A. Rendell, J. C. Burant, S. S. Iyengar, J. Tomasi, 
 M. Cossi, N. Rega, J. M. Millam, M. Klene, J. E. Knox, J. B. Cross, 
 V. Bakken, C. Adamo, J. Jaramillo, R. Gomperts, R. E. Stratmann, 
 O. Yazyev, A. J. Austin, R. Cammi, C. Pomelli, J. W. Ochterski, 
 R. L. Martin, K. Morokuma, V. G. Zakrzewski, G. A. Voth, 
 P. Salvador, J. J. Dannenberg, S. Dapprich, A. D. Daniels, 
 O. Farkas, J. B. Foresman, J. V. Ortiz, J. Cioslowski, 
 and D. J. Fox, Gaussian, Inc., Wallingford CT, 2013.
 
 ******************************************
 Gaussian 09:  ES64L-G09RevD.01 24-Apr-2013
                12-Jul-2021 
 ******************************************
 %mem=8gb
 -------------------------------------
 #N PBE1PBE/6-311G(d,p) TD(NStates=10)
 -------------------------------------
 1/38=1/1;
 2/12=2,17=6,18=5,40=1/2;
 3/5=4,6=6,7=101,11=9,16=1,25=1,30=1,74=-13/1,2,8,3;
 4//1;
 5/5=2,38=5/2;
 8/6=1,10=2,108=10/1;
 9/41=10,42=1,70=2/14;
 6/7=2,8=2,9=2,10=2/1;
 99/5=1,9=1/99;
 ----
 Name
 ----
 Symbolic Z-matrix:
 Charge =  0 Multiplicity = 1
 C1                    1.58387  -0.55669  -0.16471 
 C2                    2.61657  -1.50134  -0.01182 
 C3                    3.94299  -1.10998   0.07613 
 C4                    1.95556   0.79934  -0.21684 
 C5                    3.27811   1.19578  -0.11278 
 C6                    4.30251   0.24617   0.0318 
 N7                    5.65374   0.64486   0.12987 
 C8                    6.55567  -0.06675   0.97149 
 C9                    7.83806  -0.39774   0.51534 
 C10                   8.72262  -1.08069   1.34403 
 C11                   8.34085  -1.45734   2.63042 
 C12                   7.06334  -1.13434   3.08479 
 C13                   6.17821  -0.43714   2.269 
 C14                   6.13122   1.76139  -0.61441 
 C15                   6.95642   2.71635  -0.00671 
 C16                   7.43314   3.79877  -0.73917 
 C17                   7.08455   3.95555  -2.07944 
 C18                   6.25847   3.01007  -2.68495 
 C19                   5.79083   1.91572  -1.96467 
 C20                   0.18548  -0.96234  -0.25654 
 C21                  -0.35657  -2.19213  -0.56493 
 O22                   0.39056  -3.3047   -0.84681 
 C23                  -0.35663  -4.32716  -1.518 
 C24                  -1.68253  -4.54896  -0.81782 
 O25                  -2.47781  -3.35345  -0.86615 
 C26                  -1.78056  -2.21838  -0.57188 
 C27                  -2.37284  -1.00462  -0.27364 
 S28                  -1.10966   0.17976   0.03917 
 C29                  -3.77552  -0.64738  -0.18092 
 C30                  -4.79979  -1.54477  -0.55533 
 C31                  -6.12815  -1.17921  -0.45526 
 C32                  -6.52303   0.09068   0.01635 
 C33                  -7.93606   0.36638   0.08 
 C34                  -8.63666   1.46472   0.47852 
 C35                  -8.06526   2.67364   0.95603 
 N36                  -7.68972   3.6947    1.35604 
 C37                  -10.14066   1.39541   0.40821 
 O38                  -10.8137   2.49614   0.8066 
 O39                  -10.73151   0.4227    0.02147 
 C40                  -5.49784   0.98828   0.38747 
 C41                  -4.17082   0.626     0.29075 
 H42                   2.37434  -2.55358   0.02801 
 H43                   4.71425  -1.8622    0.18404 
 H44                   1.19554   1.56258  -0.34115 
 H45                   3.52614   2.24897  -0.14773 
 H46                   8.13586  -0.11469  -0.48695 
 H47                   9.71178  -1.32947   0.97596 
 H48                   9.0305   -1.99406   3.27125 
 H49                   6.75613  -1.413     4.08668 
 H50                   5.1914   -0.17655   2.63192 
 H51                   7.22117   2.60379   1.03757 
 H52                   8.07027   4.52997  -0.25426 
 H53                   7.45247   4.80342  -2.64521 
 H54                   5.9862    3.11549  -3.72922 
 H55                   5.16049   1.1758   -2.44275 
 H56                   0.25986  -5.22555  -1.48597 
 H57                  -0.52078  -4.03793  -2.56239 
 H58                  -1.51877  -4.83348   0.22726 
 H59                  -2.26955  -5.32112  -1.31499 
 H60                  -4.54125  -2.52477  -0.92619 
 H61                  -6.89416  -1.88809  -0.75141 
 H62                  -8.58356  -0.44311  -0.24763 
 H63                  -10.20914   3.19665   1.08976 
 H64                  -5.73911   1.97527   0.75729 
 H65                  -3.41728   1.34337   0.59406 
 
 Stoichiometry    C34H24N2O4S
 Framework group  C1[X(C34H24N2O4S)]
 Deg. of freedom   189
 Full point group                 C1      NOp   1
 Largest Abelian subgroup         C1      NOp   1
 Largest concise Abelian subgroup C1      NOp   1
                         Standard orientation:                         
 ---------------------------------------------------------------------
 Center     Atomic      Atomic             Coordinates (Angstroms)
 Number     Number       Type             X           Y           Z
 ---------------------------------------------------------------------
      1          6           0       -1.583874    0.556693   -0.164710
      2          6           0       -2.616567    1.501336   -0.011816
      3          6           0       -3.942989    1.109980    0.076132
      4          6           0       -1.955555   -0.799337   -0.216835
      5          6           0       -3.278111   -1.195779   -0.112784
      6          6           0       -4.302513   -0.246165    0.031800
      7          7           0       -5.653743   -0.644860    0.129870
      8          6           0       -6.555670    0.066752    0.971486
      9          6           0       -7.838060    0.397737    0.515342
     10          6           0       -8.722623    1.080689    1.344026
     11          6           0       -8.340848    1.457342    2.630424
     12          6           0       -7.063338    1.134339    3.084793
     13          6           0       -6.178212    0.437140    2.268997
     14          6           0       -6.131217   -1.761390   -0.614412
     15          6           0       -6.956415   -2.716346   -0.006713
     16          6           0       -7.433142   -3.798766   -0.739167
     17          6           0       -7.084546   -3.955554   -2.079443
     18          6           0       -6.258475   -3.010070   -2.684947
     19          6           0       -5.790828   -1.915720   -1.964668
     20          6           0       -0.185482    0.962340   -0.256540
     21          6           0        0.356566    2.192127   -0.564926
     22          8           0       -0.390562    3.304695   -0.846805
     23          6           0        0.356626    4.327160   -1.518002
     24          6           0        1.682531    4.548965   -0.817823
     25          8           0        2.477808    3.353448   -0.866145
     26          6           0        1.780564    2.218376   -0.571879
     27          6           0        2.372844    1.004615   -0.273638
     28         16           0        1.109661   -0.179762    0.039166
     29          6           0        3.775522    0.647382   -0.180919
     30          6           0        4.799792    1.544768   -0.555334
     31          6           0        6.128149    1.179214   -0.455261
     32          6           0        6.523026   -0.090680    0.016352
     33          6           0        7.936061   -0.366375    0.079998
     34          6           0        8.636656   -1.464719    0.478523
     35          6           0        8.065263   -2.673643    0.956033
     36          7           0        7.689718   -3.694698    1.356037
     37          6           0       10.140658   -1.395407    0.408212
     38          8           0       10.813696   -2.496137    0.806598
     39          8           0       10.731511   -0.422698    0.021469
     40          6           0        5.497845   -0.988283    0.387471
     41          6           0        4.170822   -0.625996    0.290747
     42          1           0       -2.374338    2.553585    0.028009
     43          1           0       -4.714250    1.862200    0.184040
     44          1           0       -1.195538   -1.562581   -0.341151
     45          1           0       -3.526140   -2.248973   -0.147733
     46          1           0       -8.135862    0.114688   -0.486946
     47          1           0       -9.711776    1.329472    0.975962
     48          1           0       -9.030505    1.994060    3.271253
     49          1           0       -6.756134    1.413000    4.086683
     50          1           0       -5.191399    0.176549    2.631921
     51          1           0       -7.221172   -2.603789    1.037568
     52          1           0       -8.070273   -4.529970   -0.254258
     53          1           0       -7.452466   -4.803421   -2.645213
     54          1           0       -5.986196   -3.115491   -3.729222
     55          1           0       -5.160487   -1.175801   -2.442754
     56          1           0       -0.259860    5.225547   -1.485974
     57          1           0        0.520780    4.037932   -2.562391
     58          1           0        1.518767    4.833477    0.227260
     59          1           0        2.269554    5.321118   -1.314991
     60          1           0        4.541252    2.524766   -0.926188
     61          1           0        6.894159    1.888091   -0.751406
     62          1           0        8.583563    0.443108   -0.247632
     63          1           0       10.209140   -3.196646    1.089759
     64          1           0        5.739114   -1.975266    0.757291
     65          1           0        3.417278   -1.343373    0.594055
 ---------------------------------------------------------------------
 Rotational constants (GHZ):      0.1603720      0.0247312      0.0227806
 Standard basis: 6-311G(d,p) (5D, 7F)
 There are   931 symmetry adapted cartesian basis functions of A   symmetry.
 There are   890 symmetry adapted basis functions of A   symmetry.
   890 basis functions,  1518 primitive gaussians,   931 cartesian basis functions
   145 alpha electrons      145 beta electrons
       nuclear repulsion energy      4184.8263305700 Hartrees.
 NAtoms=   65 NActive=   65 NUniq=   65 SFac= 1.00D+00 NAtFMM=   60 NAOKFM=T Big=T
 Integral buffers will be    131072 words long.
 Regular integral format.
 Two-electron integral symmetry is turned on.
 One-electron integrals computed using PRISM.
 NBasis=   890 RedAO= T EigKep=  1.28D-04  NBF=   890
 NBsUse=   890 1.00D-06 EigRej= -1.00D+00 NBFU=   890
 ExpMin= 7.71D-02 ExpMax= 9.34D+04 ExpMxC= 3.17D+03 IAcc=2 IRadAn=         4 AccDes= 0.00D+00
 Harris functional with IExCor= 1009 and IRadAn=       4 diagonalized for initial guess.
 HarFok:  IExCor= 1009 AccDes= 0.00D+00 IRadAn=         4 IDoV= 1 UseB2=F ITyADJ=14
 ICtDFT=  3500011 ScaDFX=  1.000000  1.000000  1.000000  1.000000
 FoFCou: FMM=F IPFlag=           0 FMFlag=      100000 FMFlg1=        2001
         NFxFlg=           0 DoJE=T BraDBF=F KetDBF=T FulRan=T
         wScrn=  0.000000 ICntrl=     500 IOpCl=  0 I1Cent=   200000004 NGrid=           0
         NMat0=    1 NMatS0=      1 NMatT0=    0 NMatD0=    1 NMtDS0=    0 NMtDT0=    0
 Petite list used in FoFCou.
 Requested convergence on RMS density matrix=1.00D-08 within 128 cycles.
 Requested convergence on MAX density matrix=1.00D-06.
 Requested convergence on             energy=1.00D-06.
 No special actions if energy rises.
 Integral accuracy reduced to 1.0D-05 until final iterations.
 Initial convergence to 1.0D-05 achieved.  Increase integral accuracy.
 SCF Done:  E(RPBE1PBE) =  -2116.92011602     A.U. after   16 cycles
            NFock= 16  Conv=0.41D-08     -V/T= 2.0034
 DoSCS=F DFT=T ScalE2(SS,OS)=  1.000000  1.000000
 ExpMin= 7.71D-02 ExpMax= 9.34D+04 ExpMxC= 3.17D+03 IAcc=3 IRadAn=         5 AccDes= 0.00D+00
 HarFok:  IExCor=  205 AccDes= 0.00D+00 IRadAn=         5 IDoV=-2 UseB2=F ITyADJ=14
 ICtDFT= 12500011 ScaDFX=  1.000000  1.000000  1.000000  1.000000
 Range of M.O.s used for correlation:    46   890
 NBasis=   890 NAE=   145 NBE=   145 NFC=    45 NFV=     0
 NROrb=    845 NOA=   100 NOB=   100 NVA=   745 NVB=   745

 **** Warning!!: The largest alpha MO coefficient is  0.14289872D+02


 **** Warning!!: The smallest alpha delta epsilon is  0.98091941D-01

 Would need an additional        235144100000 words for in-memory AO integral storage.
 Orbital symmetries:
       Occupied  (A) (A) (A) (A) (A) (A) (A) (A) (A) (A) (A) (A)
                 (A) (A) (A) (A) (A) (A) (A) (A) (A) (A) (A) (A)
                 (A) (A) (A) (A) (A) (A) (A) (A) (A) (A) (A) (A)
                 (A) (A) (A) (A) (A) (A) (A) (A) (A) (A) (A) (A)
                 (A) (A) (A) (A) (A) (A) (A) (A) (A) (A) (A) (A)
                 (A) (A) (A) (A) (A) (A) (A) (A) (A) (A) (A) (A)
                 (A) (A) (A) (A) (A) (A) (A) (A) (A) (A) (A) (A)
                 (A) (A) (A) (A) (A) (A) (A) (A) (A) (A) (A) (A)
                 (A) (A) (A) (A) (A) (A) (A) (A) (A) (A) (A) (A)
                 (A) (A) (A) (A) (A) (A) (A) (A) (A) (A) (A) (A)
                 (A) (A) (A) (A) (A) (A) (A) (A) (A) (A) (A) (A)
                 (A) (A) (A) (A) (A) (A) (A) (A) (A) (A) (A) (A)
                 (A)
       Virtual   (A) (A) (A) (A) (A) (A) (A) (A) (A) (A) (A) (A)
                 (A) (A) (A) (A) (A) (A) (A) (A) (A) (A) (A) (A)
                 (A) (A) (A) (A) (A) (A) (A) (A) (A) (A) (A) (A)
                 (A) (A) (A) (A) (A) (A) (A) (A) (A) (A) (A) (A)
                 (A) (A) (A) (A) (A) (A) (A) (A) (A) (A) (A) (A)
                 (A) (A) (A) (A) (A) (A) (A) (A) (A) (A) (A) (A)
                 (A) (A) (A) (A) (A) (A) (A) (A) (A) (A) (A) (A)
                 (A) (A) (A) (A) (A) (A) (A) (A) (A) (A) (A) (A)
                 (A) (A) (A) (A) (A) (A) (A) (A) (A) (A) (A) (A)
                 (A) (A) (A) (A) (A) (A) (A) (A) (A) (A) (A) (A)
                 (A) (A) (A) (A) (A) (A) (A) (A) (A) (A) (A) (A)
                 (A) (A) (A) (A) (A) (A) (A) (A) (A) (A) (A) (A)
                 (A) (A) (A) (A) (A) (A) (A) (A) (A) (A) (A) (A)
                 (A) (A) (A) (A) (A) (A) (A) (A) (A) (A) (A) (A)
                 (A) (A) (A) (A) (A) (A) (A) (A) (A) (A) (A) (A)
                 (A) (A) (A) (A) (A) (A) (A) (A) (A) (A) (A) (A)
                 (A) (A) (A) (A) (A) (A) (A) (A) (A) (A) (A) (A)
                 (A) (A) (A) (A) (A) (A) (A) (A) (A) (A) (A) (A)
                 (A) (A) (A) (A) (A) (A) (A) (A) (A) (A) (A) (A)
                 (A) (A) (A) (A) (A) (A) (A) (A) (A) (A) (A) (A)
                 (A) (A) (A) (A) (A) (A) (A) (A) (A) (A) (A) (A)
                 (A) (A) (A) (A) (A) (A) (A) (A) (A) (A) (A) (A)
                 (A) (A) (A) (A) (A) (A) (A) (A) (A) (A) (A) (A)
                 (A) (A) (A) (A) (A) (A) (A) (A) (A) (A) (A) (A)
                 (A) (A) (A) (A) (A) (A) (A) (A) (A) (A) (A) (A)
                 (A) (A) (A) (A) (A) (A) (A) (A) (A) (A) (A) (A)
                 (A) (A) (A) (A) (A) (A) (A) (A) (A) (A) (A) (A)
                 (A) (A) (A) (A) (A) (A) (A) (A) (A) (A) (A) (A)
                 (A) (A) (A) (A) (A) (A) (A) (A) (A) (A) (A) (A)
                 (A) (A) (A) (A) (A) (A) (A) (A) (A) (A) (A) (A)
                 (A) (A) (A) (A) (A) (A) (A) (A) (A) (A) (A) (A)
                 (A) (A) (A) (A) (A) (A) (A) (A) (A) (A) (A) (A)
                 (A) (A) (A) (A) (A) (A) (A) (A) (A) (A) (A) (A)
                 (A) (A) (A) (A) (A) (A) (A) (A) (A) (A) (A) (A)
                 (A) (A) (A) (A) (A) (A) (A) (A) (A) (A) (A) (A)
                 (A) (A) (A) (A) (A) (A) (A) (A) (A) (A) (A) (A)
                 (A) (A) (A) (A) (A) (A) (A) (A) (A) (A) (A) (A)
                 (A) (A) (A) (A) (A) (A) (A) (A) (A) (A) (A) (A)
                 (A) (A) (A) (A) (A) (A) (A) (A) (A) (A) (A) (A)
                 (A) (A) (A) (A) (A) (A) (A) (A) (A) (A) (A) (A)
                 (A) (A) (A) (A) (A) (A) (A) (A) (A) (A) (A) (A)
                 (A) (A) (A) (A) (A) (A) (A) (A) (A) (A) (A) (A)
                 (A) (A) (A) (A) (A) (A) (A) (A) (A) (A) (A) (A)
                 (A) (A) (A) (A) (A) (A) (A) (A) (A) (A) (A) (A)
                 (A) (A) (A) (A) (A) (A) (A) (A) (A) (A) (A) (A)
                 (A) (A) (A) (A) (A) (A) (A) (A) (A) (A) (A) (A)
                 (A) (A) (A) (A) (A) (A) (A) (A) (A) (A) (A) (A)
                 (A) (A) (A) (A) (A) (A) (A) (A) (A) (A) (A) (A)
                 (A) (A) (A) (A) (A) (A) (A) (A) (A) (A) (A) (A)
                 (A) (A) (A) (A) (A) (A) (A) (A) (A) (A) (A) (A)
                 (A) (A) (A) (A) (A) (A) (A) (A) (A) (A) (A) (A)
                 (A) (A) (A) (A) (A) (A) (A) (A) (A) (A) (A) (A)
                 (A) (A) (A) (A) (A) (A) (A) (A) (A) (A) (A) (A)
                 (A) (A) (A) (A) (A) (A) (A) (A) (A) (A) (A) (A)
                 (A) (A) (A) (A) (A) (A) (A) (A) (A) (A) (A) (A)
                 (A) (A) (A) (A) (A) (A) (A) (A) (A) (A) (A) (A)
                 (A) (A) (A) (A) (A) (A) (A) (A) (A) (A) (A) (A)
                 (A) (A) (A) (A) (A) (A) (A) (A) (A) (A) (A) (A)
                 (A) (A) (A) (A) (A) (A) (A) (A) (A) (A) (A) (A)
                 (A) (A) (A) (A) (A) (A) (A) (A) (A) (A) (A) (A)
                 (A) (A) (A) (A) (A) (A) (A) (A) (A) (A) (A) (A)
                 (A) (A) (A) (A) (A) (A) (A) (A) (A) (A) (A) (A)
                 (A)
    40 initial guesses have been made.
 Convergence on wavefunction:    0.001000000000000
 Iteration     1 Dimension    40 NMult     0 NNew     40
 CISAX will form    40 AO SS matrices at one time.
 New state      3 was old state      4
 New state      4 was old state      3
 New state      5 was old state      7
 New state      6 was old state     11
 New state      7 was old state      9
 New state      8 was old state      5
 New state      9 was old state      6
 New state     10 was old state     19
 Iteration     2 Dimension    60 NMult    40 NNew     20
 New state      6 was old state      7
 New state      7 was old state      6
 New state      9 was old state     10
 New state     10 was old state      9
 Iteration     3 Dimension    80 NMult    60 NNew     20
 Iteration     4 Dimension   100 NMult    80 NNew     20
 Iteration     5 Dimension   120 NMult   100 NNew     20
 Iteration     6 Dimension   132 NMult   120 NNew     12
 Iteration     7 Dimension   134 NMult   132 NNew      2
 ***********************************************************************
 Excited states from <AA,BB:AA,BB> singles matrix:
 ***********************************************************************
 
 Ground to excited state transition densities written to RWF  633
 Ground to excited state transition electric dipole moments (Au):
       state          X           Y           Z        Dip. S.      Osc.
         1        -3.9298      0.2548     -0.1052     15.5190      0.8852
         2        -2.8483      0.8247     -0.2530      8.8570      0.6796
         3         0.6204     -0.1005      0.0126      0.3952      0.0331
         4        -1.3593     -1.0810      0.2993      3.1057      0.2646
         5        -0.2705      0.0123     -0.3152      0.1727      0.0161
         6        -0.2332      0.9890      0.8025      1.6766      0.1662
         7        -0.1101      0.0690      0.0042      0.0169      0.0017
         8        -0.7788      0.7814     -0.2579      1.2836      0.1301
         9        -0.0014      0.0086      0.0251      0.0007      0.0001
        10        -0.0247      0.0441      0.1896      0.0385      0.0040
 Ground to excited state transition velocity dipole moments (Au):
       state          X           Y           Z        Dip. S.      Osc.
         1         0.3280     -0.0211      0.0095      0.1081      0.8425
         2         0.3232     -0.0937      0.0297      0.1141      0.6609
         3        -0.0807      0.0131     -0.0022      0.0067      0.0355
         4         0.1734      0.1384     -0.0376      0.0506      0.2641
         5         0.0395     -0.0099      0.0516      0.0043      0.0206
         6         0.0354     -0.1495     -0.1194      0.0378      0.1696
         7         0.0157     -0.0105      0.0007      0.0004      0.0016
         8         0.1194     -0.1193      0.0397      0.0301      0.1318
         9         0.0002     -0.0013     -0.0039      0.0000      0.0001
        10         0.0031     -0.0036     -0.0319      0.0010      0.0045
 Ground to excited state transition magnetic dipole moments (Au):
       state          X           Y           Z
         1         0.0660     -0.3718     -1.3185
         2         0.0058     -0.5226     -1.7444
         3        -0.0453      0.0440      0.2028
         4         0.1494     -0.0807     -0.1668
         5        -0.3324      1.3906     -0.5997
         6         0.1832     -1.2863      1.4702
         7        -0.0542     -0.1521     -0.4307
         8        -0.0530     -0.3467     -1.2556
         9        -0.0854     -0.0877      0.0369
        10         0.1506     -0.7736     -0.0289
 Ground to excited state transition velocity quadrupole moments (Au):
       state          XX          YY          ZZ          XY          XZ          YZ
         1         1.5700     -0.0482     -0.1190     -0.7680      0.2580     -0.1810
         2         4.2113     -0.0445     -0.0253     -1.1391      0.3661     -0.1034
         3         1.1011      0.3559      0.1060      0.2314     -0.0662      0.0469
         4        -4.2790      0.1324     -0.2599      0.1443      0.0347     -0.3414
         5        -0.5483      0.0025      0.0022      0.0842     -0.6610     -0.1434
         6        -1.1780      0.7503     -0.1207      2.1943      1.6985      0.1796
         7         1.8215      0.1315      0.0981      0.2263     -0.0706      0.0688
         8         4.1319      0.2075      0.1047     -1.2067      0.3714     -0.0174
         9        -0.0044      0.0190     -0.0171     -0.0280     -0.0711      0.0195
        10         0.4324      0.0971     -0.0131     -0.0026      0.4815      0.0588
 <0|del|b> * <b|rxdel|0> + <0|del|b> * <b|delr+rdel|0>
 Rotatory Strengths (R) in cgs (10**-40 erg-esu-cm/Gauss)
       state          XX          YY          ZZ    R(velocity)    E-M Angle
         1       -27.0573   -177.4873    344.7347     46.7300       87.84
         2        -7.5150   -152.1787    153.3616     -2.1107       90.10
         3         1.4108     -0.1882     20.0954      7.1060       77.40
         4       -41.8590    -59.7627    217.8286     38.7356       66.91
         5      -118.5715   -136.6580    -37.1406    -97.4567      124.59
         6        20.6363    236.0719   -146.2031     36.8350       86.51
         7         1.6893     -0.4726      0.9394      0.7187       86.97
         8       -27.8276    -24.0685    -16.7384    -22.8782       93.74
         9        -0.0290     -0.6140      0.4506     -0.0641       90.00
        10        12.6424      3.3974      3.0594      6.3664       80.53
 1/2[<0|r|b>*<b|rxdel|0> + (<0|rxdel|b>*<b|r|0>)*]
 Rotatory Strengths (R) in cgs (10**-40 erg-esu-cm/Gauss)
       state          XX          YY          ZZ     R(length)
         1       183.4288     67.0001    -98.0462     50.7942
         2        11.5966    304.7583   -312.1576      1.3991
         3        19.8570      3.1306     -1.8016      7.0620
         4       143.5955    -61.7004     35.2992     39.0648
         5       -63.5737    -12.1443   -133.6862    -69.8014
         6        30.2072    899.6189   -834.3336     31.8308
         7        -4.2214      7.4232      1.2672      1.4897
         8       -29.2032    191.5584   -228.9606    -22.2018
         9        -0.0866      0.5331     -0.6533     -0.0690
        10         2.6312     24.1139      3.8708     10.2053
  1/2[<0|del|b>*<b|r|0> + (<0|r|b>*<b|del|0>)*] (Au)
       state          X           Y           Z        Dip. S.   Osc.(frdel)
         1        -1.2890     -0.0054     -0.0010      1.2954      0.8636
         2        -0.9205     -0.0773     -0.0075      1.0053      0.6702
         3        -0.0500     -0.0013      0.0000      0.0514      0.0343
         4        -0.2357     -0.1496     -0.0112      0.3965      0.2644
         5        -0.0107     -0.0001     -0.0163      0.0271      0.0181
         6        -0.0083     -0.1478     -0.0958      0.2519      0.1679
         7        -0.0017     -0.0007      0.0000      0.0025      0.0016
         8        -0.0930     -0.0932     -0.0102      0.1964      0.1309
         9         0.0000      0.0000     -0.0001      0.0001      0.0001
        10        -0.0001     -0.0002     -0.0060      0.0063      0.0042

 Excitation energies and oscillator strengths:
 
 Excited State   1:      Singlet-A      2.3283 eV  532.51 nm  f=0.8852  <S**2>=0.000
     145 ->146         0.70362
 This state for optimization and/or second-order correction.
 Total Energy, E(TD-HF/TD-KS) =  -2116.83455220    
 Copying the excited state density for this state as the 1-particle RhoCI density.
 
 Excited State   2:      Singlet-A      3.1319 eV  395.87 nm  f=0.6796  <S**2>=0.000
     144 ->146         0.68361
     145 ->147         0.16363
 
 Excited State   3:      Singlet-A      3.4181 eV  362.73 nm  f=0.0331  <S**2>=0.000
     143 ->146         0.65122
     145 ->147        -0.25127
 
 Excited State   4:      Singlet-A      3.4782 eV  356.46 nm  f=0.2646  <S**2>=0.000
     143 ->146         0.26182
     144 ->146        -0.14655
     145 ->147         0.62176
 
 Excited State   5:      Singlet-A      3.8106 eV  325.37 nm  f=0.0161  <S**2>=0.000
     144 ->148        -0.11819
     145 ->148         0.67463
 
 Excited State   6:      Singlet-A      4.0466 eV  306.39 nm  f=0.1662  <S**2>=0.000
     144 ->149        -0.12676
     145 ->149         0.68541
 
 Excited State   7:      Singlet-A      4.1046 eV  302.06 nm  f=0.0017  <S**2>=0.000
     137 ->146         0.52379
     142 ->146         0.10250
     144 ->147         0.22401
     144 ->150        -0.17409
     145 ->150        -0.33912
 
 Excited State   8:      Singlet-A      4.1376 eV  299.65 nm  f=0.1301  <S**2>=0.000
     137 ->146        -0.15761
     140 ->146        -0.24876
     142 ->146         0.51847
     144 ->147         0.31165
     145 ->150         0.12660
 
 Excited State   9:      Singlet-A      4.1761 eV  296.89 nm  f=0.0001  <S**2>=0.000
     135 ->146         0.68127
     135 ->147        -0.14293
 
 Excited State  10:      Singlet-A      4.2152 eV  294.14 nm  f=0.0040  <S**2>=0.000
     139 ->146         0.18512
     141 ->146         0.60620
     145 ->148        -0.11586
     145 ->152         0.19577
 SavETr:  write IOETrn=   770 NScale= 10 NData=  16 NLR=1 NState=   10 LETran=     190.

 **********************************************************************

            Population analysis using the SCF density.

 **********************************************************************

 Orbital symmetries:
       Occupied  (A) (A) (A) (A) (A) (A) (A) (A) (A) (A) (A) (A)
                 (A) (A) (A) (A) (A) (A) (A) (A) (A) (A) (A) (A)
                 (A) (A) (A) (A) (A) (A) (A) (A) (A) (A) (A) (A)
                 (A) (A) (A) (A) (A) (A) (A) (A) (A) (A) (A) (A)
                 (A) (A) (A) (A) (A) (A) (A) (A) (A) (A) (A) (A)
                 (A) (A) (A) (A) (A) (A) (A) (A) (A) (A) (A) (A)
                 (A) (A) (A) (A) (A) (A) (A) (A) (A) (A) (A) (A)
                 (A) (A) (A) (A) (A) (A) (A) (A) (A) (A) (A) (A)
                 (A) (A) (A) (A) (A) (A) (A) (A) (A) (A) (A) (A)
                 (A) (A) (A) (A) (A) (A) (A) (A) (A) (A) (A) (A)
                 (A) (A) (A) (A) (A) (A) (A) (A) (A) (A) (A) (A)
                 (A) (A) (A) (A) (A) (A) (A) (A) (A) (A) (A) (A)
                 (A)
       Virtual   (A) (A) (A) (A) (A) (A) (A) (A) (A) (A) (A) (A)
                 (A) (A) (A) (A) (A) (A) (A) (A) (A) (A) (A) (A)
                 (A) (A) (A) (A) (A) (A) (A) (A) (A) (A) (A) (A)
                 (A) (A) (A) (A) (A) (A) (A) (A) (A) (A) (A) (A)
                 (A) (A) (A) (A) (A) (A) (A) (A) (A) (A) (A) (A)
                 (A) (A) (A) (A) (A) (A) (A) (A) (A) (A) (A) (A)
                 (A) (A) (A) (A) (A) (A) (A) (A) (A) (A) (A) (A)
                 (A) (A) (A) (A) (A) (A) (A) (A) (A) (A) (A) (A)
                 (A) (A) (A) (A) (A) (A) (A) (A) (A) (A) (A) (A)
                 (A) (A) (A) (A) (A) (A) (A) (A) (A) (A) (A) (A)
                 (A) (A) (A) (A) (A) (A) (A) (A) (A) (A) (A) (A)
                 (A) (A) (A) (A) (A) (A) (A) (A) (A) (A) (A) (A)
                 (A) (A) (A) (A) (A) (A) (A) (A) (A) (A) (A) (A)
                 (A) (A) (A) (A) (A) (A) (A) (A) (A) (A) (A) (A)
                 (A) (A) (A) (A) (A) (A) (A) (A) (A) (A) (A) (A)
                 (A) (A) (A) (A) (A) (A) (A) (A) (A) (A) (A) (A)
                 (A) (A) (A) (A) (A) (A) (A) (A) (A) (A) (A) (A)
                 (A) (A) (A) (A) (A) (A) (A) (A) (A) (A) (A) (A)
                 (A) (A) (A) (A) (A) (A) (A) (A) (A) (A) (A) (A)
                 (A) (A) (A) (A) (A) (A) (A) (A) (A) (A) (A) (A)
                 (A) (A) (A) (A) (A) (A) (A) (A) (A) (A) (A) (A)
                 (A) (A) (A) (A) (A) (A) (A) (A) (A) (A) (A) (A)
                 (A) (A) (A) (A) (A) (A) (A) (A) (A) (A) (A) (A)
                 (A) (A) (A) (A) (A) (A) (A) (A) (A) (A) (A) (A)
                 (A) (A) (A) (A) (A) (A) (A) (A) (A) (A) (A) (A)
                 (A) (A) (A) (A) (A) (A) (A) (A) (A) (A) (A) (A)
                 (A) (A) (A) (A) (A) (A) (A) (A) (A) (A) (A) (A)
                 (A) (A) (A) (A) (A) (A) (A) (A) (A) (A) (A) (A)
                 (A) (A) (A) (A) (A) (A) (A) (A) (A) (A) (A) (A)
                 (A) (A) (A) (A) (A) (A) (A) (A) (A) (A) (A) (A)
                 (A) (A) (A) (A) (A) (A) (A) (A) (A) (A) (A) (A)
                 (A) (A) (A) (A) (A) (A) (A) (A) (A) (A) (A) (A)
                 (A) (A) (A) (A) (A) (A) (A) (A) (A) (A) (A) (A)
                 (A) (A) (A) (A) (A) (A) (A) (A) (A) (A) (A) (A)
                 (A) (A) (A) (A) (A) (A) (A) (A) (A) (A) (A) (A)
                 (A) (A) (A) (A) (A) (A) (A) (A) (A) (A) (A) (A)
                 (A) (A) (A) (A) (A) (A) (A) (A) (A) (A) (A) (A)
                 (A) (A) (A) (A) (A) (A) (A) (A) (A) (A) (A) (A)
                 (A) (A) (A) (A) (A) (A) (A) (A) (A) (A) (A) (A)
                 (A) (A) (A) (A) (A) (A) (A) (A) (A) (A) (A) (A)
                 (A) (A) (A) (A) (A) (A) (A) (A) (A) (A) (A) (A)
                 (A) (A) (A) (A) (A) (A) (A) (A) (A) (A) (A) (A)
                 (A) (A) (A) (A) (A) (A) (A) (A) (A) (A) (A) (A)
                 (A) (A) (A) (A) (A) (A) (A) (A) (A) (A) (A) (A)
                 (A) (A) (A) (A) (A) (A) (A) (A) (A) (A) (A) (A)
                 (A) (A) (A) (A) (A) (A) (A) (A) (A) (A) (A) (A)
                 (A) (A) (A) (A) (A) (A) (A) (A) (A) (A) (A) (A)
                 (A) (A) (A) (A) (A) (A) (A) (A) (A) (A) (A) (A)
                 (A) (A) (A) (A) (A) (A) (A) (A) (A) (A) (A) (A)
                 (A) (A) (A) (A) (A) (A) (A) (A) (A) (A) (A) (A)
                 (A) (A) (A) (A) (A) (A) (A) (A) (A) (A) (A) (A)
                 (A) (A) (A) (A) (A) (A) (A) (A) (A) (A) (A) (A)
                 (A) (A) (A) (A) (A) (A) (A) (A) (A) (A) (A) (A)
                 (A) (A) (A) (A) (A) (A) (A) (A) (A) (A) (A) (A)
                 (A) (A) (A) (A) (A) (A) (A) (A) (A) (A) (A) (A)
                 (A) (A) (A) (A) (A) (A) (A) (A) (A) (A) (A) (A)
                 (A) (A) (A) (A) (A) (A) (A) (A) (A) (A) (A) (A)
                 (A) (A) (A) (A) (A) (A) (A) (A) (A) (A) (A) (A)
                 (A) (A) (A) (A) (A) (A) (A) (A) (A) (A) (A) (A)
                 (A) (A) (A) (A) (A) (A) (A) (A) (A) (A) (A) (A)
                 (A) (A) (A) (A) (A) (A) (A) (A) (A) (A) (A) (A)
                 (A) (A) (A) (A) (A) (A) (A) (A) (A) (A) (A) (A)
                 (A)
 The electronic state is 1-A.
 Alpha  occ. eigenvalues --  -89.06040 -19.26599 -19.26058 -19.24611 -19.18429
 Alpha  occ. eigenvalues --  -14.42582 -14.39374 -10.36161 -10.31230 -10.31044
 Alpha  occ. eigenvalues --  -10.30901 -10.30546 -10.28091 -10.28064 -10.27922
 Alpha  occ. eigenvalues --  -10.27778 -10.27758 -10.27756 -10.27660 -10.27622
 Alpha  occ. eigenvalues --  -10.27226 -10.25807 -10.25342 -10.24955 -10.24780
 Alpha  occ. eigenvalues --  -10.24503 -10.24047 -10.23942 -10.23585 -10.23498
 Alpha  occ. eigenvalues --  -10.23489 -10.23479 -10.23458 -10.23396 -10.23302
 Alpha  occ. eigenvalues --  -10.23294 -10.23276 -10.23271 -10.23254 -10.23071
 Alpha  occ. eigenvalues --  -10.23044  -8.04403  -5.98104  -5.97749  -5.97307
 Alpha  occ. eigenvalues --   -1.14576  -1.13689  -1.10964  -1.05370  -1.00647
 Alpha  occ. eigenvalues --   -0.95410  -0.93610  -0.91141  -0.89624  -0.89373
 Alpha  occ. eigenvalues --   -0.87601  -0.86408  -0.82729  -0.82518  -0.80038
 Alpha  occ. eigenvalues --   -0.79345  -0.79307  -0.78108  -0.78043  -0.77832
 Alpha  occ. eigenvalues --   -0.76689  -0.75052  -0.73923  -0.71731  -0.68955
 Alpha  occ. eigenvalues --   -0.66568  -0.65899  -0.65300  -0.64410  -0.63882
 Alpha  occ. eigenvalues --   -0.63505  -0.63099  -0.62760  -0.61236  -0.60029
 Alpha  occ. eigenvalues --   -0.59734  -0.58472  -0.58231  -0.56253  -0.56167
 Alpha  occ. eigenvalues --   -0.55231  -0.54145  -0.53660  -0.51956  -0.50765
 Alpha  occ. eigenvalues --   -0.50262  -0.49714  -0.49029  -0.48376  -0.48154
 Alpha  occ. eigenvalues --   -0.47737  -0.47508  -0.47336  -0.47085  -0.46898
 Alpha  occ. eigenvalues --   -0.46416  -0.46133  -0.45839  -0.45366  -0.45241
 Alpha  occ. eigenvalues --   -0.44699  -0.44464  -0.44305  -0.44048  -0.43475
 Alpha  occ. eigenvalues --   -0.42400  -0.41783  -0.41691  -0.40588  -0.40277
 Alpha  occ. eigenvalues --   -0.39796  -0.39634  -0.39503  -0.39440  -0.39245
 Alpha  occ. eigenvalues --   -0.38792  -0.38370  -0.37851  -0.37644  -0.37095
 Alpha  occ. eigenvalues --   -0.37044  -0.36501  -0.36330  -0.36033  -0.35818
 Alpha  occ. eigenvalues --   -0.34578  -0.33863  -0.33265  -0.32522  -0.29669
 Alpha  occ. eigenvalues --   -0.29644  -0.28705  -0.28319  -0.28218  -0.27414
 Alpha  occ. eigenvalues --   -0.27168  -0.26907  -0.24887  -0.22995  -0.19923
 Alpha virt. eigenvalues --   -0.10114  -0.05312  -0.02782  -0.02279  -0.01960
 Alpha virt. eigenvalues --   -0.01189  -0.00540  -0.00440   0.01448   0.01472
 Alpha virt. eigenvalues --    0.01627   0.02584   0.03201   0.04288   0.04616
 Alpha virt. eigenvalues --    0.04823   0.05695   0.05885   0.06448   0.06725
 Alpha virt. eigenvalues --    0.07592   0.08063   0.08448   0.08552   0.08683
 Alpha virt. eigenvalues --    0.08893   0.09540   0.09941   0.10739   0.10752
 Alpha virt. eigenvalues --    0.11052   0.12301   0.12424   0.12792   0.12947
 Alpha virt. eigenvalues --    0.13605   0.13995   0.14142   0.14219   0.14399
 Alpha virt. eigenvalues --    0.14762   0.15166   0.16228   0.16553   0.17078
 Alpha virt. eigenvalues --    0.17486   0.17684   0.17786   0.19063   0.19380
 Alpha virt. eigenvalues --    0.19558   0.20983   0.22710   0.23293   0.23754
 Alpha virt. eigenvalues --    0.24204   0.24592   0.24817   0.25968   0.26455
 Alpha virt. eigenvalues --    0.26607   0.27039   0.27439   0.27510   0.27829
 Alpha virt. eigenvalues --    0.28480   0.29042   0.29162   0.29844   0.30017
 Alpha virt. eigenvalues --    0.30436   0.31013   0.31399   0.31619   0.31689
 Alpha virt. eigenvalues --    0.32510   0.33092   0.33277   0.34304   0.34971
 Alpha virt. eigenvalues --    0.35187   0.35470   0.36181   0.36563   0.36695
 Alpha virt. eigenvalues --    0.36981   0.37192   0.37641   0.37700   0.38010
 Alpha virt. eigenvalues --    0.38566   0.38584   0.38875   0.39188   0.39218
 Alpha virt. eigenvalues --    0.39350   0.39949   0.40186   0.40328   0.40713
 Alpha virt. eigenvalues --    0.41048   0.41534   0.41792   0.42248   0.42529
 Alpha virt. eigenvalues --    0.42636   0.42794   0.42996   0.43315   0.43407
 Alpha virt. eigenvalues --    0.43528   0.43809   0.43954   0.44224   0.44328
 Alpha virt. eigenvalues --    0.44418   0.44518   0.44644   0.45028   0.45077
 Alpha virt. eigenvalues --    0.45931   0.46177   0.46720   0.47540   0.47673
 Alpha virt. eigenvalues --    0.48261   0.48714   0.49000   0.49078   0.49777
 Alpha virt. eigenvalues --    0.50137   0.50498   0.51012   0.51252   0.51541
 Alpha virt. eigenvalues --    0.51767   0.52057   0.52538   0.53176   0.53472
 Alpha virt. eigenvalues --    0.53937   0.54749   0.55757   0.55904   0.56231
 Alpha virt. eigenvalues --    0.56445   0.56951   0.57062   0.57368   0.57582
 Alpha virt. eigenvalues --    0.57699   0.57922   0.58176   0.58372   0.58846
 Alpha virt. eigenvalues --    0.59058   0.59790   0.60468   0.60802   0.61238
 Alpha virt. eigenvalues --    0.61320   0.61502   0.61685   0.61994   0.62227
 Alpha virt. eigenvalues --    0.62435   0.62732   0.62939   0.63020   0.63608
 Alpha virt. eigenvalues --    0.63880   0.64128   0.64426   0.64647   0.65426
 Alpha virt. eigenvalues --    0.65707   0.65847   0.66723   0.66921   0.67097
 Alpha virt. eigenvalues --    0.67168   0.67501   0.68077   0.68158   0.68478
 Alpha virt. eigenvalues --    0.69074   0.69183   0.69714   0.71252   0.71519
 Alpha virt. eigenvalues --    0.72110   0.72865   0.73940   0.74230   0.74389
 Alpha virt. eigenvalues --    0.74744   0.75109   0.75824   0.76594   0.76945
 Alpha virt. eigenvalues --    0.77294   0.78061   0.78517   0.79247   0.79412
 Alpha virt. eigenvalues --    0.79889   0.80252   0.80827   0.81144   0.81509
 Alpha virt. eigenvalues --    0.82563   0.82613   0.82867   0.83428   0.83675
 Alpha virt. eigenvalues --    0.84046   0.84543   0.84900   0.85128   0.85201
 Alpha virt. eigenvalues --    0.85586   0.85783   0.86084   0.86768   0.87100
 Alpha virt. eigenvalues --    0.87643   0.87951   0.88574   0.89488   0.90710
 Alpha virt. eigenvalues --    0.90946   0.91104   0.91337   0.92003   0.92142
 Alpha virt. eigenvalues --    0.92317   0.93353   0.93597   0.93921   0.94739
 Alpha virt. eigenvalues --    0.95281   0.95535   0.96554   0.97212   0.98069
 Alpha virt. eigenvalues --    0.98264   0.98539   0.98992   0.99181   0.99701
 Alpha virt. eigenvalues --    1.00347   1.00963   1.01369   1.01636   1.01827
 Alpha virt. eigenvalues --    1.02611   1.03278   1.03876   1.04035   1.04364
 Alpha virt. eigenvalues --    1.04600   1.04822   1.05967   1.06285   1.06371
 Alpha virt. eigenvalues --    1.07070   1.07319   1.07761   1.08110   1.08139
 Alpha virt. eigenvalues --    1.08482   1.08848   1.09324   1.09917   1.10796
 Alpha virt. eigenvalues --    1.11038   1.11846   1.12313   1.12521   1.12651
 Alpha virt. eigenvalues --    1.13261   1.13566   1.13844   1.14737   1.15403
 Alpha virt. eigenvalues --    1.16007   1.16575   1.17110   1.17251   1.19943
 Alpha virt. eigenvalues --    1.20711   1.21896   1.22413   1.24812   1.25886
 Alpha virt. eigenvalues --    1.26617   1.27412   1.27630   1.28164   1.29491
 Alpha virt. eigenvalues --    1.30828   1.30862   1.31855   1.32299   1.33192
 Alpha virt. eigenvalues --    1.33343   1.35706   1.36032   1.37016   1.39586
 Alpha virt. eigenvalues --    1.39672   1.40103   1.40633   1.40826   1.41214
 Alpha virt. eigenvalues --    1.41442   1.43745   1.44208   1.44447   1.45054
 Alpha virt. eigenvalues --    1.45289   1.46096   1.46354   1.46552   1.46778
 Alpha virt. eigenvalues --    1.47209   1.47449   1.47470   1.47904   1.48666
 Alpha virt. eigenvalues --    1.49136   1.49604   1.49899   1.50982   1.51353
 Alpha virt. eigenvalues --    1.51640   1.51897   1.52056   1.52466   1.53070
 Alpha virt. eigenvalues --    1.53866   1.53993   1.54311   1.54807   1.55174
 Alpha virt. eigenvalues --    1.55817   1.55960   1.56091   1.56575   1.56800
 Alpha virt. eigenvalues --    1.57204   1.57403   1.58848   1.59356   1.59886
 Alpha virt. eigenvalues --    1.60493   1.61089   1.61448   1.61804   1.62936
 Alpha virt. eigenvalues --    1.63089   1.63379   1.64023   1.64623   1.64871
 Alpha virt. eigenvalues --    1.64948   1.65632   1.66364   1.66613   1.66840
 Alpha virt. eigenvalues --    1.67510   1.67911   1.68574   1.68644   1.68936
 Alpha virt. eigenvalues --    1.69604   1.70148   1.70707   1.71182   1.73493
 Alpha virt. eigenvalues --    1.73818   1.74074   1.75015   1.75414   1.75593
 Alpha virt. eigenvalues --    1.75632   1.75915   1.77090   1.77808   1.77996
 Alpha virt. eigenvalues --    1.78137   1.78235   1.78871   1.79302   1.79813
 Alpha virt. eigenvalues --    1.80527   1.80687   1.81560   1.81737   1.82629
 Alpha virt. eigenvalues --    1.83098   1.83458   1.83994   1.84978   1.86506
 Alpha virt. eigenvalues --    1.87691   1.88257   1.89001   1.89219   1.90060
 Alpha virt. eigenvalues --    1.90967   1.91381   1.91661   1.91958   1.92014
 Alpha virt. eigenvalues --    1.92102   1.92444   1.92692   1.92915   1.93103
 Alpha virt. eigenvalues --    1.93678   1.93944   1.94370   1.94665   1.94913
 Alpha virt. eigenvalues --    1.95492   1.95811   1.96205   1.96492   1.96858
 Alpha virt. eigenvalues --    1.97258   1.97893   1.99063   1.99552   1.99703
 Alpha virt. eigenvalues --    2.00501   2.01048   2.01886   2.02023   2.02137
 Alpha virt. eigenvalues --    2.02588   2.02936   2.03365   2.04195   2.04468
 Alpha virt. eigenvalues --    2.05725   2.06855   2.07373   2.07836   2.08491
 Alpha virt. eigenvalues --    2.08641   2.09045   2.09212   2.10301   2.11489
 Alpha virt. eigenvalues --    2.11822   2.12703   2.13663   2.15055   2.15804
 Alpha virt. eigenvalues --    2.16249   2.16800   2.17602   2.18076   2.19433
 Alpha virt. eigenvalues --    2.20845   2.22483   2.23216   2.26189   2.26775
 Alpha virt. eigenvalues --    2.28288   2.29498   2.29862   2.31570   2.31715
 Alpha virt. eigenvalues --    2.32042   2.32672   2.32943   2.34461   2.35044
 Alpha virt. eigenvalues --    2.35352   2.35696   2.36294   2.36640   2.37118
 Alpha virt. eigenvalues --    2.37975   2.38810   2.39211   2.39792   2.39987
 Alpha virt. eigenvalues --    2.41058   2.41818   2.42257   2.43850   2.45194
 Alpha virt. eigenvalues --    2.45749   2.47110   2.49126   2.49283   2.52102
 Alpha virt. eigenvalues --    2.53641   2.53965   2.55268   2.55837   2.56171
 Alpha virt. eigenvalues --    2.56444   2.56911   2.57574   2.58980   2.59982
 Alpha virt. eigenvalues --    2.61189   2.61310   2.61417   2.61576   2.62257
 Alpha virt. eigenvalues --    2.62640   2.63178   2.63410   2.63540   2.64054
 Alpha virt. eigenvalues --    2.64128   2.64360   2.64548   2.64732   2.65403
 Alpha virt. eigenvalues --    2.65561   2.66043   2.66337   2.66712   2.67145
 Alpha virt. eigenvalues --    2.67662   2.68088   2.68638   2.69105   2.69202
 Alpha virt. eigenvalues --    2.69675   2.69794   2.70672   2.71128   2.71486
 Alpha virt. eigenvalues --    2.72373   2.72685   2.73243   2.73927   2.75488
 Alpha virt. eigenvalues --    2.75617   2.75738   2.75952   2.76794   2.77649
 Alpha virt. eigenvalues --    2.78361   2.79242   2.79978   2.80985   2.81453
 Alpha virt. eigenvalues --    2.81983   2.82434   2.82889   2.84397   2.85028
 Alpha virt. eigenvalues --    2.85145   2.85595   2.86578   2.87055   2.87631
 Alpha virt. eigenvalues --    2.88680   2.89101   2.90063   2.90211   2.91315
 Alpha virt. eigenvalues --    2.91693   2.92262   2.92593   2.93115   2.93452
 Alpha virt. eigenvalues --    2.93582   2.94217   2.94389   2.95130   2.95483
 Alpha virt. eigenvalues --    2.96062   2.98702   2.98865   2.98895   2.99769
 Alpha virt. eigenvalues --    3.00829   3.01052   3.01461   3.03933   3.06313
 Alpha virt. eigenvalues --    3.07323   3.07963   3.09460   3.10425   3.11092
 Alpha virt. eigenvalues --    3.12159   3.12786   3.13005   3.13726   3.16680
 Alpha virt. eigenvalues --    3.17461   3.18018   3.18820   3.19391   3.20173
 Alpha virt. eigenvalues --    3.21250   3.21497   3.23857   3.24620   3.25485
 Alpha virt. eigenvalues --    3.28341   3.30180   3.32309   3.33764   3.34463
 Alpha virt. eigenvalues --    3.35440   3.36000   3.36280   3.36892   3.38422
 Alpha virt. eigenvalues --    3.39192   3.39489   3.40637   3.40846   3.41922
 Alpha virt. eigenvalues --    3.43602   3.45654   3.46110   3.46575   3.49334
 Alpha virt. eigenvalues --    3.50123   3.50362   3.51475   3.52223   3.52507
 Alpha virt. eigenvalues --    3.52878   3.53837   3.56732   3.58856   3.60011
 Alpha virt. eigenvalues --    3.61146   3.61546   3.63983   3.65131   3.65467
 Alpha virt. eigenvalues --    3.66030   3.79279   3.80710   3.85127   3.86428
 Alpha virt. eigenvalues --    3.86857   3.89466   3.90315   3.91887   3.94217
 Alpha virt. eigenvalues --    3.95596   3.97566   3.99119   3.99565   3.99602
 Alpha virt. eigenvalues --    4.00682   4.01701   4.02109   4.06383   4.08145
 Alpha virt. eigenvalues --    4.10806   4.13075   4.13871   4.14260   4.14629
 Alpha virt. eigenvalues --    4.14983   4.16652   4.17716   4.19152   4.20024
 Alpha virt. eigenvalues --    4.20357   4.21727   4.25093   4.42110   4.50067
 Alpha virt. eigenvalues --    4.58479   4.73184   4.83174   4.85650   4.85904
 Alpha virt. eigenvalues --    4.86187   4.86420   4.95235   4.96066   4.97088
 Alpha virt. eigenvalues --    5.07996   5.08909   5.14472   5.31264   5.33923
 Alpha virt. eigenvalues --    5.43530   5.60513   5.71809   5.79623   5.85275
 Alpha virt. eigenvalues --    7.84181  17.29425  17.59009  17.61138  23.51073
 Alpha virt. eigenvalues --   23.59152  23.63415  23.64666  23.71591  23.78965
 Alpha virt. eigenvalues --   23.87538  23.87755  23.87787  23.90342  23.98833
 Alpha virt. eigenvalues --   24.01068  24.01219  24.01678  24.02543  24.03139
 Alpha virt. eigenvalues --   24.03647  24.03693  24.08939  24.11656  24.12132
 Alpha virt. eigenvalues --   24.15470  24.16296  24.16528  24.19820  24.20423
 Alpha virt. eigenvalues --   24.21593  24.22148  24.23165  24.27230  24.27846
 Alpha virt. eigenvalues --   24.28972  24.29136  24.52737  35.75539  35.93394
 Alpha virt. eigenvalues --   49.98881  50.03481  50.05033  50.15512 189.15222
          Condensed to atoms (all electrons):
 Mulliken charges:
               1
     1  C    0.003765
     2  C   -0.027594
     3  C   -0.108689
     4  C   -0.110892
     5  C   -0.107420
     6  C    0.160487
     7  N   -0.552481
     8  C    0.087826
     9  C   -0.083124
    10  C   -0.100552
    11  C   -0.103126
    12  C   -0.099345
    13  C   -0.083189
    14  C    0.085500
    15  C   -0.082055
    16  C   -0.100110
    17  C   -0.102640
    18  C   -0.098972
    19  C   -0.083597
    20  C   -0.322395
    21  C    0.238462
    22  O   -0.376216
    23  C   -0.076056
    24  C   -0.071040
    25  O   -0.378372
    26  C    0.251423
    27  C   -0.342615
    28  S    0.373135
    29  C    0.034292
    30  C   -0.029274
    31  C   -0.068060
    32  C   -0.106033
    33  C    0.060000
    34  C   -0.229481
    35  C    0.034119
    36  N   -0.284717
    37  C    0.500224
    38  O   -0.311250
    39  O   -0.333120
    40  C   -0.046732
    41  C   -0.124701
    42  H    0.118938
    43  H    0.128489
    44  H    0.113766
    45  H    0.129849
    46  H    0.123291
    47  H    0.108681
    48  H    0.106222
    49  H    0.109196
    50  H    0.124845
    51  H    0.123384
    52  H    0.109156
    53  H    0.106655
    54  H    0.109231
    55  H    0.124031
    56  H    0.142280
    57  H    0.153643
    58  H    0.155383
    59  H    0.142586
    60  H    0.125116
    61  H    0.107629
    62  H    0.140441
    63  H    0.260356
    64  H    0.135628
    65  H    0.115815
 Sum of Mulliken charges =   0.00000
 Mulliken charges with hydrogens summed into heavy atoms:
               1
     1  C    0.003765
     2  C    0.091344
     3  C    0.019800
     4  C    0.002874
     5  C    0.022429
     6  C    0.160487
     7  N   -0.552481
     8  C    0.087826
     9  C    0.040167
    10  C    0.008129
    11  C    0.003096
    12  C    0.009852
    13  C    0.041656
    14  C    0.085500
    15  C    0.041329
    16  C    0.009046
    17  C    0.004015
    18  C    0.010259
    19  C    0.040434
    20  C   -0.322395
    21  C    0.238462
    22  O   -0.376216
    23  C    0.219866
    24  C    0.226928
    25  O   -0.378372
    26  C    0.251423
    27  C   -0.342615
    28  S    0.373135
    29  C    0.034292
    30  C    0.095842
    31  C    0.039569
    32  C   -0.106033
    33  C    0.200440
    34  C   -0.229481
    35  C    0.034119
    36  N   -0.284717
    37  C    0.500224
    38  O   -0.050894
    39  O   -0.333120
    40  C    0.088897
    41  C   -0.008886
 Electronic spatial extent (au):  <R**2>=          43524.6596
 Charge=              0.0000 electrons
 Dipole moment (field-independent basis, Debye):
    X=             -9.1268    Y=              5.2952    Z=             -1.5928  Tot=             10.6712
 Quadrupole moment (field-independent basis, Debye-Ang):
   XX=           -316.4120   YY=           -215.0927   ZZ=           -236.7598
   XY=             21.0322   XZ=             -6.4358   YZ=             -0.8997
 Traceless Quadrupole moment (field-independent basis, Debye-Ang):
   XX=            -60.3238   YY=             40.9954   ZZ=             19.3284
   XY=             21.0322   XZ=             -6.4358   YZ=             -0.8997
 Octapole moment (field-independent basis, Debye-Ang**2):
  XXX=          -1259.7099  YYY=            181.0764  ZZZ=             -8.6273  XYY=            -25.8215
  XXY=             85.8072  XXZ=              2.1423  XZZ=            -26.4991  YZZ=             22.4969
  YYZ=            -63.8574  XYZ=            -31.2060
 Hexadecapole moment (field-independent basis, Debye-Ang**3):
 XXXX=         -63064.5947 YYYY=          -5894.9186 ZZZZ=          -2017.9647 XXXY=            633.1507
 XXXZ=           -308.2855 YYYX=            595.7068 YYYZ=           -114.9199 ZZZX=            -24.1342
 ZZZY=             50.1104 XXYY=          -9261.5993 XXZZ=          -8635.6754 YYZZ=          -1359.6567
 XXYZ=            269.3210 YYXZ=            -70.9110 ZZXY=             13.8507
 N-N= 4.184826330570D+03 E-N=-1.331987934924D+04  KE= 2.109757325212D+03
 1\1\GINC-N070\SP\RPBE1PBE TD-FC\6-311G(d,p)\C34H24N2O4S1\R2652\12-Jul-
 2021\0\\#N PBE1PBE/6-311G(d,p) TD(NStates=10)\\Name\\0,1\C,0,1.583874,
 -0.556693,-0.16471\C,0,2.616567,-1.501336,-0.011816\C,0,3.942989,-1.10
 998,0.076132\C,0,1.955555,0.799337,-0.216835\C,0,3.278111,1.195779,-0.
 112784\C,0,4.302513,0.246165,0.0318\N,0,5.653743,0.64486,0.12987\C,0,6
 .55567,-0.066752,0.971486\C,0,7.83806,-0.397737,0.515342\C,0,8.722623,
 -1.080689,1.344026\C,0,8.340848,-1.457342,2.630424\C,0,7.063338,-1.134
 339,3.084793\C,0,6.178212,-0.43714,2.268997\C,0,6.131217,1.76139,-0.61
 4412\C,0,6.956415,2.716346,-0.006713\C,0,7.433142,3.798766,-0.739167\C
 ,0,7.084546,3.955554,-2.079443\C,0,6.258475,3.01007,-2.684947\C,0,5.79
 0828,1.91572,-1.964668\C,0,0.185482,-0.96234,-0.25654\C,0,-0.356566,-2
 .192127,-0.564926\O,0,0.390562,-3.304695,-0.846805\C,0,-0.356626,-4.32
 716,-1.518002\C,0,-1.682531,-4.548965,-0.817823\O,0,-2.477808,-3.35344
 8,-0.866145\C,0,-1.780564,-2.218376,-0.571879\C,0,-2.372844,-1.004615,
 -0.273638\S,0,-1.109661,0.179762,0.039166\C,0,-3.775522,-0.647382,-0.1
 80919\C,0,-4.799792,-1.544768,-0.555334\C,0,-6.128149,-1.179214,-0.455
 261\C,0,-6.523026,0.09068,0.016352\C,0,-7.936061,0.366375,0.079998\C,0
 ,-8.636656,1.464719,0.478523\C,0,-8.065263,2.673643,0.956033\N,0,-7.68
 9718,3.694698,1.356037\C,0,-10.140658,1.395407,0.408212\O,0,-10.813696
 ,2.496137,0.806598\O,0,-10.731511,0.422698,0.021469\C,0,-5.497845,0.98
 8283,0.387471\C,0,-4.170822,0.625996,0.290747\H,0,2.374338,-2.553585,0
 .028009\H,0,4.71425,-1.8622,0.18404\H,0,1.195538,1.562581,-0.341151\H,
 0,3.52614,2.248973,-0.147733\H,0,8.135862,-0.114688,-0.486946\H,0,9.71
 1776,-1.329472,0.975962\H,0,9.030505,-1.99406,3.271253\H,0,6.756134,-1
 .413,4.086683\H,0,5.191399,-0.176549,2.631921\H,0,7.221172,2.603789,1.
 037568\H,0,8.070273,4.52997,-0.254258\H,0,7.452466,4.803421,-2.645213\
 H,0,5.986196,3.115491,-3.729222\H,0,5.160487,1.175801,-2.442754\H,0,0.
 25986,-5.225547,-1.485974\H,0,-0.52078,-4.037932,-2.562391\H,0,-1.5187
 67,-4.833477,0.22726\H,0,-2.269554,-5.321118,-1.314991\H,0,-4.541252,-
 2.524766,-0.926188\H,0,-6.894159,-1.888091,-0.751406\H,0,-8.583563,-0.
 443108,-0.247632\H,0,-10.20914,3.196646,1.089759\H,0,-5.739114,1.97526
 6,0.757291\H,0,-3.417278,1.343373,0.594055\\Version=ES64L-G09RevD.01\S
 tate=1-A\HF=-2116.920116\RMSD=4.102e-09\PG=C01 [X(C34H24N2O4S1)]\\@


 ONE BIG VICE IN A MAN IS APT TO KEEP OUT MANY SMALLER ONES.

                           -- BRET HARTE
 Job cpu time:       0 days  4 hours 36 minutes 45.0 seconds.
 File lengths (MBytes):  RWF=   1930 Int=      0 D2E=      0 Chk=    279 Scr=      1
 Normal termination of Gaussian 09 at Mon Jul 12 20:50:30 2021.
