 Entering Gaussian System, Link 0=g16
 Input=ES.com
 Output=ES.out
 Initial command:
 /usr/local/apps/gaussian/g16-b01-avx2//g16/l1.exe "/tmp/r2532.857992.maple/Gau-16934.inp" -scrdir="/tmp/r2532.857992.maple/"
 Entering Link 1 = /usr/local/apps/gaussian/g16-b01-avx2//g16/l1.exe PID=     16935.
  
 Copyright (c) 1988-2017, Gaussian, Inc.  All Rights Reserved.
  
 This is part of the Gaussian(R) 16 program.  It is based on
 the Gaussian(R) 09 system (copyright 2009, Gaussian, Inc.),
 the Gaussian(R) 03 system (copyright 2003, Gaussian, Inc.),
 the Gaussian(R) 98 system (copyright 1998, Gaussian, Inc.),
 the Gaussian(R) 94 system (copyright 1995, Gaussian, Inc.),
 the Gaussian 92(TM) system (copyright 1992, Gaussian, Inc.),
 the Gaussian 90(TM) system (copyright 1990, Gaussian, Inc.),
 the Gaussian 88(TM) system (copyright 1988, Gaussian, Inc.),
 the Gaussian 86(TM) system (copyright 1986, Carnegie Mellon
 University), and the Gaussian 82(TM) system (copyright 1983,
 Carnegie Mellon University). Gaussian is a federally registered
 trademark of Gaussian, Inc.
  
 This software contains proprietary and confidential information,
 including trade secrets, belonging to Gaussian, Inc.
  
 This software is provided under written license and may be
 used, copied, transmitted, or stored only in accord with that
 written license.
  
 The following legend is applicable only to US Government
 contracts under FAR:
  
                    RESTRICTED RIGHTS LEGEND
  
 Use, reproduction and disclosure by the US Government is
 subject to restrictions as set forth in subparagraphs (a)
 and (c) of the Commercial Computer Software - Restricted
 Rights clause in FAR 52.227-19.
  
 Gaussian, Inc.
 340 Quinnipiac St., Bldg. 40, Wallingford CT 06492
  
  
 ---------------------------------------------------------------
 Warning -- This program may not be used in any manner that
 competes with the business of Gaussian, Inc. or will provide
 assistance to any competitor of Gaussian, Inc.  The licensee
 of this program is prohibited from giving any competitor of
 Gaussian, Inc. access to this program.  By using this program,
 the user acknowledges that Gaussian, Inc. is engaged in the
 business of creating and licensing software in the field of
 computational chemistry and represents and warrants to the
 licensee that it is not a competitor of Gaussian, Inc. and that
 it will not use this program in any manner prohibited above.
 ---------------------------------------------------------------
  

 Cite this work as:
 Gaussian 16, Revision B.01,
 M. J. Frisch, G. W. Trucks, H. B. Schlegel, G. E. Scuseria, 
 M. A. Robb, J. R. Cheeseman, G. Scalmani, V. Barone, 
 G. A. Petersson, H. Nakatsuji, X. Li, M. Caricato, A. V. Marenich, 
 J. Bloino, B. G. Janesko, R. Gomperts, B. Mennucci, H. P. Hratchian, 
 J. V. Ortiz, A. F. Izmaylov, J. L. Sonnenberg, D. Williams-Young, 
 F. Ding, F. Lipparini, F. Egidi, J. Goings, B. Peng, A. Petrone, 
 T. Henderson, D. Ranasinghe, V. G. Zakrzewski, J. Gao, N. Rega, 
 G. Zheng, W. Liang, M. Hada, M. Ehara, K. Toyota, R. Fukuda, 
 J. Hasegawa, M. Ishida, T. Nakajima, Y. Honda, O. Kitao, H. Nakai, 
 T. Vreven, K. Throssell, J. A. Montgomery, Jr., J. E. Peralta, 
 F. Ogliaro, M. J. Bearpark, J. J. Heyd, E. N. Brothers, K. N. Kudin, 
 V. N. Staroverov, T. A. Keith, R. Kobayashi, J. Normand, 
 K. Raghavachari, A. P. Rendell, J. C. Burant, S. S. Iyengar, 
 J. Tomasi, M. Cossi, J. M. Millam, M. Klene, C. Adamo, R. Cammi, 
 J. W. Ochterski, R. L. Martin, K. Morokuma, O. Farkas, 
 J. B. Foresman, and D. J. Fox, Gaussian, Inc., Wallingford CT, 2016.
 
 ******************************************
 Gaussian 16:  ES64L-G16RevB.01 20-Dec-2017
                14-Jun-2021 
 ******************************************
 %mem=8gb
 ---------------------------------------------------------------------
 #N TD(NStates=10)CAM-B3lYP/aug-cc-pVDZ SCRF=(Solvent=TetraHydroFuran)
 ---------------------------------------------------------------------
 1/38=1,172=1/1;
 2/12=2,17=6,18=5,40=1/2;
 3/5=16,7=10,11=9,25=1,30=1,70=2201,72=20,74=-40/1,2,3,8;
 4//1;
 5/5=2,38=5,53=20/2;
 8/6=1,10=1,108=10/1;
 9/41=10,42=1,70=2/14;
 6/7=2,8=2,9=2,10=2/1;
 99/5=1,9=1/99;
 ----
 Name
 ----
 Symbolic Z-matrix:
 Charge =  0 Multiplicity = 1
 6                     0.93737  -3.07345  -0.18667 
 6                     2.12287  -2.11525  -0.08166 
 6                     1.67932  -0.8041    0.06845 
 6                     0.24933  -0.78717   0.07773 
 16                   -1.03641   0.36103   0.21552 
 6                    -2.23886  -0.92615   0.05558 
 6                    -3.66345  -0.61872   0.08808 
 6                    -4.16707   0.63979  -0.28462 
 6                    -5.52322   0.91821  -0.26005 
 6                    -6.45364  -0.05647   0.14537 
 7                    -7.82802   0.22115   0.17817 
 6                    -8.3007    1.55297   0.38581 
 6                    -9.2542    2.10972  -0.46577 
 1                    -9.62521   1.52842  -1.30142 
 6                    -9.74567   3.39753  -0.25291 
 6                    -9.267     4.15743   0.81702 
 6                    -8.3043    3.60531   1.67269 
 6                    -7.83674   2.31876   1.46616 
 1                    -7.10302   1.89706   2.14277 
 1                    -7.95078   4.20256   2.50434 
 8                    -9.66831   5.42528   1.11427 
 6                    -10.64223   6.03995   0.28244 
 1                    -10.28531   6.13903  -0.74886 
 1                    -11.58568   5.48251   0.28856 
 1                    -10.80803   7.03089   0.70155 
 1                    -10.48879   3.79437  -0.93121 
 6                    -8.79054  -0.816    -0.01459 
 6                    -8.70689  -1.68172  -1.10535 
 6                    -9.64725  -2.69412  -1.29497 
 6                    -10.70787  -2.83637  -0.39654 
 6                    -10.80507  -1.9603    0.69236 
 6                    -9.85575  -0.97086   0.88449 
 1                    -9.93578  -0.30347   1.73416 
 1                    -11.63103  -2.0851    1.38194 
 8                    -11.68672  -3.78038  -0.48918 
 6                    -11.64573  -4.69413  -1.57594 
 1                    -11.72295  -4.17736  -2.53919 
 1                    -10.73103  -5.29752  -1.55983 
 1                    -12.50803  -5.34631  -1.44855 
 1                    -9.54839  -3.34875  -2.15031 
 1                    -7.89486  -1.56908  -1.81389 
 6                    -5.95718  -1.31887   0.52374 
 6                    -4.60013  -1.58717   0.49474 
 1                    -4.25383  -2.55733   0.83193 
 1                    -6.64587  -2.0827    0.86097 
 1                    -5.87359   1.89365  -0.57133 
 1                    -3.48639   1.40814  -0.63469 
 6                    -1.62549  -2.16105  -0.07841 
 6                    -0.21972  -2.0834   -0.06482 
 1                    -2.19197  -3.07258  -0.2147 
 16                    2.97765   0.32206   0.18497 
 6                     4.16218  -0.98809   0.01242 
 6                     3.51621  -2.21773  -0.11396 
 1                     4.06458  -3.14215  -0.24465 
 6                     5.56705  -0.7373    0.04514 
 16                    6.68086  -2.03652   0.37656 
 6                     8.11724  -1.00735   0.24972 
 6                     7.69972   0.29807  -0.01318 
 6                     6.28361   0.45519  -0.1447 
 6                     5.91829   1.77686  -0.54353 
 6                     7.00203   2.58067  -0.71621 
 16                    8.54275   1.78183  -0.38 
 6                     6.92949   3.99545  -1.12736 
 8                     5.9002    4.58649  -1.35272 
 8                     8.15699   4.5424   -1.22147 
 6                     8.20206   5.92907  -1.60434 
 1                     7.75699   6.06463  -2.59108 
 1                     7.66179   6.53969  -0.87974 
 1                     9.25704   6.19099  -1.61758 
 1                     4.91461   2.13592  -0.71661 
 6                     9.37614  -1.65344   0.3541 
 6                     10.62216  -1.15892   0.65376 
 6                     10.83171   0.14424   1.17759 
 7                     10.99525   1.19398   1.63525 
 6                     11.83447  -2.03674   0.64516 
 8                     11.76302  -3.14754  -0.14686 
 1                     11.0612  -3.0442   -0.79945 
 8                     12.81695  -1.81893   1.29612 
 1                     9.33135  -2.73041   0.20604 
 6                     0.91727  -3.80042  -1.54825 
 1                     0.92417  -3.0863   -2.37401 
 1                     1.78943  -4.45222  -1.6488 
 1                     0.02102  -4.42022  -1.63746 
 6                     0.93018  -4.09326   0.97224 
 1                     0.94722  -3.58743   1.93955 
 1                     0.0336   -4.71732   0.9264 
 1                     1.80217  -4.75016   0.91157 
 
 Stoichiometry    C43H32N2O6S4
 Framework group  C1[X(C43H32N2O6S4)]
 Deg. of freedom   255
 Full point group                 C1      NOp   1
 Largest Abelian subgroup         C1      NOp   1
 Largest concise Abelian subgroup C1      NOp   1
                         Standard orientation:                         
 ---------------------------------------------------------------------
 Center     Atomic      Atomic             Coordinates (Angstroms)
 Number     Number       Type             X           Y           Z
 ---------------------------------------------------------------------
      1          6           0       -0.937367   -3.073447    0.186672
      2          6           0       -2.122867   -2.115248    0.081661
      3          6           0       -1.679316   -0.804099   -0.068452
      4          6           0       -0.249325   -0.787165   -0.077728
      5         16           0        1.036410    0.361025   -0.215518
      6          6           0        2.238860   -0.926149   -0.055578
      7          6           0        3.663445   -0.618716   -0.088081
      8          6           0        4.167072    0.639785    0.284618
      9          6           0        5.523215    0.918205    0.260048
     10          6           0        6.453643   -0.056471   -0.145370
     11          7           0        7.828021    0.221147   -0.178165
     12          6           0        8.300703    1.552970   -0.385806
     13          6           0        9.254197    2.109715    0.465769
     14          1           0        9.625209    1.528423    1.301420
     15          6           0        9.745666    3.397532    0.252908
     16          6           0        9.267005    4.157431   -0.817016
     17          6           0        8.304305    3.605310   -1.672687
     18          6           0        7.836741    2.318757   -1.466163
     19          1           0        7.103023    1.897060   -2.142771
     20          1           0        7.950783    4.202556   -2.504337
     21          8           0        9.668305    5.425275   -1.114274
     22          6           0       10.642233    6.039950   -0.282435
     23          1           0       10.285306    6.139026    0.748855
     24          1           0       11.585682    5.482513   -0.288556
     25          1           0       10.808033    7.030888   -0.701547
     26          1           0       10.488787    3.794368    0.931210
     27          6           0        8.790537   -0.816003    0.014590
     28          6           0        8.706892   -1.681719    1.105345
     29          6           0        9.647255   -2.694117    1.294967
     30          6           0       10.707870   -2.836370    0.396541
     31          6           0       10.805065   -1.960304   -0.692355
     32          6           0        9.855745   -0.970857   -0.884487
     33          1           0        9.935782   -0.303465   -1.734163
     34          1           0       11.631034   -2.085101   -1.381938
     35          8           0       11.686719   -3.780380    0.489179
     36          6           0       11.645727   -4.694126    1.575939
     37          1           0       11.722954   -4.177359    2.539191
     38          1           0       10.731032   -5.297522    1.559834
     39          1           0       12.508032   -5.346312    1.448547
     40          1           0        9.548391   -3.348753    2.150306
     41          1           0        7.894861   -1.569078    1.813892
     42          6           0        5.957184   -1.318867   -0.523743
     43          6           0        4.600126   -1.587169   -0.494737
     44          1           0        4.253834   -2.557328   -0.831925
     45          1           0        6.645870   -2.082701   -0.860973
     46          1           0        5.873589    1.893646    0.571326
     47          1           0        3.486389    1.408137    0.634689
     48          6           0        1.625489   -2.161053    0.078410
     49          6           0        0.219718   -2.083396    0.064821
     50          1           0        2.191968   -3.072577    0.214700
     51         16           0       -2.977646    0.322058   -0.184968
     52          6           0       -4.162184   -0.988087   -0.012416
     53          6           0       -3.516210   -2.217730    0.113955
     54          1           0       -4.064580   -3.142153    0.244654
     55          6           0       -5.567054   -0.737299   -0.045138
     56         16           0       -6.680862   -2.036515   -0.376555
     57          6           0       -8.117241   -1.007346   -0.249715
     58          6           0       -7.699721    0.298072    0.013178
     59          6           0       -6.283611    0.455188    0.144695
     60          6           0       -5.918293    1.776862    0.543528
     61          6           0       -7.002029    2.580666    0.716207
     62         16           0       -8.542754    1.781825    0.380001
     63          6           0       -6.929485    3.995445    1.127359
     64          8           0       -5.900200    4.586493    1.352715
     65          8           0       -8.156994    4.542399    1.221469
     66          6           0       -8.202058    5.929065    1.604344
     67          1           0       -7.756993    6.064628    2.591080
     68          1           0       -7.661788    6.539691    0.879736
     69          1           0       -9.257040    6.190991    1.617581
     70          1           0       -4.914608    2.135918    0.716605
     71          6           0       -9.376140   -1.653440   -0.354095
     72          6           0      -10.622163   -1.158916   -0.653764
     73          6           0      -10.831709    0.144243   -1.177590
     74          7           0      -10.995247    1.193976   -1.635252
     75          6           0      -11.834467   -2.036742   -0.645164
     76          8           0      -11.763023   -3.147544    0.146859
     77          1           0      -11.061204   -3.044195    0.799445
     78          8           0      -12.816952   -1.818928   -1.296115
     79          1           0       -9.331350   -2.730405   -0.206037
     80          6           0       -0.917271   -3.800420    1.548251
     81          1           0       -0.924169   -3.086302    2.374015
     82          1           0       -1.789433   -4.452223    1.648799
     83          1           0       -0.021019   -4.420217    1.637464
     84          6           0       -0.930182   -4.093261   -0.972236
     85          1           0       -0.947217   -3.587426   -1.939546
     86          1           0       -0.033600   -4.717316   -0.926403
     87          1           0       -1.802170   -4.750158   -0.911574
 ---------------------------------------------------------------------
 Rotational constants (GHZ):           0.0816788           0.0106340           0.0095919
 Standard basis: Aug-CC-pVDZ (5D, 7F)
 There are  1679 symmetry adapted cartesian basis functions of A   symmetry.
 There are  1569 symmetry adapted basis functions of A   symmetry.
  1569 basis functions,  2869 primitive gaussians,  1679 cartesian basis functions
   208 alpha electrons      208 beta electrons
       nuclear repulsion energy      7134.6351005501 Hartrees.
 NAtoms=   87 NActive=   87 NUniq=   87 SFac= 1.00D+00 NAtFMM=   60 NAOKFM=T Big=T
 Integral buffers will be    131072 words long.
 Raffenetti 1 integral format.
 Two-electron integral symmetry is turned on.
 ------------------------------------------------------------------------------
 Polarizable Continuum Model (PCM)
 =================================
 Model                : PCM.
 Atomic radii         : UFF (Universal Force Field).
 Polarization charges : Total charges.
 Charge compensation  : None.
 Solution method      : On-the-fly selection.
 Cavity type          : Scaled VdW (van der Waals Surface) (Alpha=1.100).
 Cavity algorithm     : GePol (No added spheres)
                        Default sphere list used, NSphG=   87.
                        Lebedev-Laikov grids with approx.  5.0 points / Ang**2.
                        Smoothing algorithm: York/Karplus (Gamma=1.0000).
                        Polarization charges: spherical gaussians, with
                                              point-specific exponents (IZeta= 3).
                        Self-potential: point-specific (ISelfS= 7).
                        Self-field    : sphere-specific E.n sum rule (ISelfD= 2).
 Solvent              : TetraHydroFuran, Eps=   7.425700 Eps(inf)=   1.974025
 ------------------------------------------------------------------------------
 One-electron integrals computed using PRISM.
 NBasis=  1569 RedAO= T EigKep=  1.04D-06  NBF=  1569
 NBsUse=  1559 1.00D-06 EigRej=  9.70D-07 NBFU=  1559
 ExpMin= 2.97D-02 ExpMax= 1.11D+05 ExpMxC= 1.07D+03 IAcc=3 IRadAn=         5 AccDes= 0.00D+00
 Harris functional with IExCor=20419 and IRadAn=       5 diagonalized for initial guess.
 HarFok:  IExCor=20419 AccDes= 0.00D+00 IRadAn=         5 IDoV= 1 UseB2=F ITyADJ=14
 ICtDFT=  3500011 ScaDFX=  1.000000  1.000000  1.000000  1.000000
 FoFCou: FMM=F IPFlag=           0 FMFlag=      100000 FMFlg1=        2001
         NFxFlg=           0 DoJE=T BraDBF=F KetDBF=T FulRan=T
         wScrn=  0.000000 ICntrl=       500 IOpCl=  0 I1Cent=   200000004 NGrid=           0
         NMat0=    1 NMatS0=      1 NMatT0=    0 NMatD0=    1 NMtDS0=    0 NMtDT0=    0
 Petite list used in FoFCou.
 Requested convergence on RMS density matrix=1.00D-08 within 128 cycles.
 Requested convergence on MAX density matrix=1.00D-06.
 Requested convergence on             energy=1.00D-06.
 No special actions if energy rises.
 Inv3:  Mode=1 IEnd=   141673152.
 Iteration    1 A*A^-1 deviation from unit magnitude is 4.66D-15 for   6454.
 Iteration    1 A*A^-1 deviation from orthogonality  is 3.02D-15 for   6792   6069.
 Iteration    1 A^-1*A deviation from unit magnitude is 4.66D-15 for   6454.
 Iteration    1 A^-1*A deviation from orthogonality  is 2.10D-15 for   4582   1888.
 Restarting incremental Fock formation.
 Restarting incremental Fock formation.
 Restarting incremental Fock formation.
 Restarting incremental Fock formation.
 Restarting incremental Fock formation.
 Restarting incremental Fock formation.
 >>>>>>>>>> Convergence criterion not met.
 Error on total polarization charges =  0.03413
 SCF Done:  E(RCAM-B3LYP) =  -3810.59386601     A.U. after  129 cycles
            NFock=128  Conv=0.17D-05     -V/T= 2.0043
 DoSCS=F DFT=T ScalE2(SS,OS)=  1.000000  1.000000
 SCFChk:  SCF convergence  1.68D-06 required  1.00D-08


 SCF Error SCF Error SCF Error SCF Error SCF Error SCF Error SCF Error SCF Error

                                    ERROR!!!!

    SCF has not converged.  Gradients and post-SCF results would be GARBAGE!!

 SCF Error SCF Error SCF Error SCF Error SCF Error SCF Error SCF Error SCF Error


 Error termination via Lnk1e in /usr/local/apps/gaussian/g16-b01-avx2//g16/l801.exe at Fri Jun 18 12:19:53 2021.
 Job cpu time:       4 days  3 hours  6 minutes  7.9 seconds.
 Elapsed time:       4 days  3 hours 26 minutes 26.9 seconds.
 File lengths (MBytes):  RWF=   2175 Int=      0 D2E=      0 Chk=     57 Scr=      1
