 Entering Gaussian System, Link 0=g16
 Input=mex.com
 Output=mex.out
 Initial command:
 /usr/local/apps/gaussian/g16-b01-avx2//g16/l1.exe "/tmp/r2532.820637.maple/Gau-25173.inp" -scrdir="/tmp/r2532.820637.maple/"
 Entering Link 1 = /usr/local/apps/gaussian/g16-b01-avx2//g16/l1.exe PID=     25174.
  
 Copyright (c) 1988-2017, Gaussian, Inc.  All Rights Reserved.
  
 This is part of the Gaussian(R) 16 program.  It is based on
 the Gaussian(R) 09 system (copyright 2009, Gaussian, Inc.),
 the Gaussian(R) 03 system (copyright 2003, Gaussian, Inc.),
 the Gaussian(R) 98 system (copyright 1998, Gaussian, Inc.),
 the Gaussian(R) 94 system (copyright 1995, Gaussian, Inc.),
 the Gaussian 92(TM) system (copyright 1992, Gaussian, Inc.),
 the Gaussian 90(TM) system (copyright 1990, Gaussian, Inc.),
 the Gaussian 88(TM) system (copyright 1988, Gaussian, Inc.),
 the Gaussian 86(TM) system (copyright 1986, Carnegie Mellon
 University), and the Gaussian 82(TM) system (copyright 1983,
 Carnegie Mellon University). Gaussian is a federally registered
 trademark of Gaussian, Inc.
  
 This software contains proprietary and confidential information,
 including trade secrets, belonging to Gaussian, Inc.
  
 This software is provided under written license and may be
 used, copied, transmitted, or stored only in accord with that
 written license.
  
 The following legend is applicable only to US Government
 contracts under FAR:
  
                    RESTRICTED RIGHTS LEGEND
  
 Use, reproduction and disclosure by the US Government is
 subject to restrictions as set forth in subparagraphs (a)
 and (c) of the Commercial Computer Software - Restricted
 Rights clause in FAR 52.227-19.
  
 Gaussian, Inc.
 340 Quinnipiac St., Bldg. 40, Wallingford CT 06492
  
  
 ---------------------------------------------------------------
 Warning -- This program may not be used in any manner that
 competes with the business of Gaussian, Inc. or will provide
 assistance to any competitor of Gaussian, Inc.  The licensee
 of this program is prohibited from giving any competitor of
 Gaussian, Inc. access to this program.  By using this program,
 the user acknowledges that Gaussian, Inc. is engaged in the
 business of creating and licensing software in the field of
 computational chemistry and represents and warrants to the
 licensee that it is not a competitor of Gaussian, Inc. and that
 it will not use this program in any manner prohibited above.
 ---------------------------------------------------------------
  

 Cite this work as:
 Gaussian 16, Revision B.01,
 M. J. Frisch, G. W. Trucks, H. B. Schlegel, G. E. Scuseria, 
 M. A. Robb, J. R. Cheeseman, G. Scalmani, V. Barone, 
 G. A. Petersson, H. Nakatsuji, X. Li, M. Caricato, A. V. Marenich, 
 J. Bloino, B. G. Janesko, R. Gomperts, B. Mennucci, H. P. Hratchian, 
 J. V. Ortiz, A. F. Izmaylov, J. L. Sonnenberg, D. Williams-Young, 
 F. Ding, F. Lipparini, F. Egidi, J. Goings, B. Peng, A. Petrone, 
 T. Henderson, D. Ranasinghe, V. G. Zakrzewski, J. Gao, N. Rega, 
 G. Zheng, W. Liang, M. Hada, M. Ehara, K. Toyota, R. Fukuda, 
 J. Hasegawa, M. Ishida, T. Nakajima, Y. Honda, O. Kitao, H. Nakai, 
 T. Vreven, K. Throssell, J. A. Montgomery, Jr., J. E. Peralta, 
 F. Ogliaro, M. J. Bearpark, J. J. Heyd, E. N. Brothers, K. N. Kudin, 
 V. N. Staroverov, T. A. Keith, R. Kobayashi, J. Normand, 
 K. Raghavachari, A. P. Rendell, J. C. Burant, S. S. Iyengar, 
 J. Tomasi, M. Cossi, J. M. Millam, M. Klene, C. Adamo, R. Cammi, 
 J. W. Ochterski, R. L. Martin, K. Morokuma, O. Farkas, 
 J. B. Foresman, and D. J. Fox, Gaussian, Inc., Wallingford CT, 2016.
 
 ******************************************
 Gaussian 16:  ES64L-G16RevB.01 20-Dec-2017
                 3-Jun-2021 
 ******************************************
 %mem=8gb
 -----------------------------------------------
 #N B3LYP/6-311G(d,p) Opt FREQ Geom=Connectivity
 -----------------------------------------------
 1/18=20,19=15,26=3,38=1,57=2/1,3;
 2/9=110,12=2,17=6,18=5,40=1/2;
 3/5=4,6=6,7=101,11=2,25=1,30=1,71=1,74=-5/1,2,3;
 4//1;
 5/5=2,38=5/2;
 6/7=2,8=2,9=2,10=2,28=1/1;
 7//1,2,3,16;
 1/18=20,19=15,26=3/3(2);
 2/9=110/2;
 99//99;
 2/9=110/2;
 3/5=4,6=6,7=101,11=2,25=1,30=1,71=1,74=-5/1,2,3;
 4/5=5,16=3,69=1/1;
 5/5=2,38=5/2;
 7//1,2,3,16;
 1/18=20,19=15,26=3/3(-5);
 2/9=110/2;
 6/7=2,8=2,9=2,10=2,19=2,28=1/1;
 99/9=1/99;
 ------------
 C61H46O6N4S3
 ------------
 Symbolic Z-matrix:
 Charge =  0 Multiplicity = 1
 C                     0.        0.        0. 
 C                    -1.04628  -0.48006  -1.00464 
 C                    -0.43579  -1.02954  -2.12357 
 C                     0.98653  -0.96814  -1.96182 
 S                     2.40699  -1.40688  -2.83754 
 C                     3.43588  -0.78271  -1.52893 
 C                     2.6605   -0.2712   -0.49905 
 C                     1.27935  -0.37724  -0.74462 
 H                     3.11184   0.15626   0.38298 
 C                     4.88182  -0.85834  -1.64626 
 C                     5.69465  -1.28007  -0.60677 
 C                     7.10106  -1.37624  -0.69272 
 C                     7.82776  -1.05225  -1.82301 
 C                     7.0378   -0.60396  -2.93853 
 N                     7.51737  -0.22116  -4.12405 
 S                     6.24285   0.21557  -5.0501 
 N                     5.02852  -0.05754  -3.98272 
 C                     5.58413  -0.50384  -2.85538 
 C                     9.29749  -1.15567  -1.86124 
 C                     9.99776  -1.53029  -3.02118 
 C                     11.37716  -1.66628  -3.02138 
 C                     12.12704  -1.43093  -1.85746 
 C                     11.43777  -1.04744  -0.69529 
 C                     10.05893  -0.91152  -0.7049 
 H                     9.56421  -0.59222   0.20513 
 H                     11.99033  -0.85101   0.2146 
 N                     13.53062  -1.57192  -1.85652 
 C                     14.34116  -0.72927  -1.04543 
 C                     15.38575  -1.2651   -0.28157 
 C                     16.1832  -0.44426   0.50467 
 C                     15.9621   0.94068   0.57096 
 C                     14.91453   1.46589  -0.20199 
 C                     14.12173   0.65272  -1.00204 
 H                     13.33088   1.08667  -1.60199 
 H                     14.7358   2.53539  -0.20039 
 C                     16.76694   1.82363   1.45178 
 C                     16.13951   2.82523   2.21531 
 C                     16.83984   3.65836   3.07028 
 C                     18.22566   3.5145    3.20149 
 C                     18.88207   2.53709   2.45355 
 C                     18.15941   1.70739   1.59386 
 O                     18.87634   0.74673   0.90691 
 C                     19.20107   1.09375  -0.44204 
 H                     19.82339   1.99551  -0.47209 
 H                     19.76106   0.25272  -0.85035 
 H                     18.29916   1.25502  -1.04052 
 H                     19.95009   2.38109   2.51632 
 O                     18.83806   4.36144   4.0747 
 C                     20.24183   4.24261   4.26047 
 H                     20.50875   4.99721   4.99842 
 H                     20.51373   3.25171   4.64049 
 H                     20.78796   4.43714   3.33062 
 H                     16.33604   4.41243   3.66202 
 H                     15.06221   2.92752   2.15189 
 H                     16.98151  -0.88155   1.08912 
 H                     15.56545  -2.33323  -0.302 
 C                     14.15537  -2.57953  -2.64704 
 C                     15.28791  -2.28073  -3.41422 
 C                     15.90845  -3.26287  -4.17403 
 C                     15.42014  -4.57809  -4.20791 
 C                     14.2784  -4.86089  -3.44313 
 C                     13.65951  -3.88739  -2.66849 
 H                     12.78266  -4.1375   -2.08341 
 H                     13.86317  -5.86231  -3.45822 
 C                     16.09244  -5.6587   -4.97316 
 C                     16.54143  -5.49615  -6.30034 
 C                     17.15259  -6.54874  -6.99174 
 C                     17.32952  -7.78659  -6.36662 
 C                     16.89459  -7.97052  -5.05362 
 C                     16.29016  -6.91636  -4.38693 
 H                     15.97254  -7.06006  -3.36056 
 H                     17.04729  -8.93115  -4.5789 
 O                     17.91796  -8.86346  -6.96058 
 C                     18.38367  -8.7406   -8.29563 
 H                     19.16063  -7.9724   -8.38264 
 H                     18.80872  -9.70956  -8.55228 
 H                     17.56602  -8.51173  -8.98873 
 H                     17.48142  -6.40312  -8.00849 
 O                     16.3334  -4.27209  -6.86837 
 C                     16.6905  -4.06448  -8.22587 
 H                     17.76906  -4.17888  -8.3833 
 H                     16.15028  -4.74539  -8.89301 
 H                     16.40316  -3.03897  -8.45263 
 H                     16.78168  -3.00545  -4.75812 
 H                     15.68376  -1.27217  -3.40606 
 H                     11.88512  -1.95783  -3.93192 
 H                     9.45444  -1.70987  -3.93802 
 H                     7.62793  -1.75067   0.17653 
 H                     5.23975  -1.5675    0.3344 
 S                    -1.57723  -1.58585  -3.28852 
 C                    -2.92301  -1.06748  -2.25902 
 C                    -2.44744  -0.50304  -1.0832 
 H                    -3.10684  -0.10582  -0.32314 
 C                    -4.29953  -1.25382  -2.68013 
 C                    -5.36449  -1.09202  -1.76857 
 C                    -6.67414  -1.26055  -2.16953 
 C                    -7.00705  -1.60779  -3.49728 
 C                    -5.94167  -1.77568  -4.40795 
 C                    -4.63223  -1.60034  -4.00826 
 H                    -3.84529  -1.72135  -4.74357 
 H                    -6.13723  -2.03899  -5.4382 
 C                    -8.4054   -1.76467  -3.81187 
 C                    -9.05155  -2.08141  -4.96808 
 C                    -8.42291  -2.3455   -6.21355 
 N                    -7.99764  -2.57522  -7.26701 
 C                    -10.55701  -2.1587   -4.92585 
 O                    -11.19146  -1.95282  -3.92614 
 O                    -11.17675  -2.4756   -6.08223 
 H                    -10.54119  -2.61253  -6.79898 
 H                    -9.09067  -1.60347  -2.98346 
 H                    -7.47193  -1.13224  -1.44593 
 H                    -5.15814  -0.84952  -0.73392 
 C                    -0.09071   1.52394   0.22851 
 H                    -0.01204   2.0669   -0.71542 
 H                    -1.04276   1.78611   0.69836 
 H                     0.71505   1.85992   0.88642 
 C                    -0.11435  -0.75608   1.3411 
 H                    -0.05605  -1.83562   1.18862 
 H                     0.69354  -0.46052   2.01568 
 H                    -1.06493  -0.52809   1.83134 
 

 GradGradGradGradGradGradGradGradGradGradGradGradGradGradGradGradGradGrad
 Berny optimization.
 Initialization pass.
                           ----------------------------
                           !    Initial Parameters    !
                           ! (Angstroms and Degrees)  !
 --------------------------                            --------------------------
 ! Name  Definition              Value          Derivative Info.                !
 --------------------------------------------------------------------------------
 ! R1    R(1,2)                  1.5279         estimate D2E/DX2                !
 ! R2    R(1,8)                  1.5276         estimate D2E/DX2                !
 ! R3    R(1,113)                1.5436         estimate D2E/DX2                !
 ! R4    R(1,117)                1.5438         estimate D2E/DX2                !
 ! R5    R(2,3)                  1.388          estimate D2E/DX2                !
 ! R6    R(2,92)                 1.4036         estimate D2E/DX2                !
 ! R7    R(3,4)                  1.4328         estimate D2E/DX2                !
 ! R8    R(3,90)                 1.7232         estimate D2E/DX2                !
 ! R9    R(4,5)                  1.7254         estimate D2E/DX2                !
 ! R10   R(4,8)                  1.3844         estimate D2E/DX2                !
 ! R11   R(5,6)                  1.7778         estimate D2E/DX2                !
 ! R12   R(6,7)                  1.3869         estimate D2E/DX2                !
 ! R13   R(6,10)                 1.4527         estimate D2E/DX2                !
 ! R14   R(7,8)                  1.4068         estimate D2E/DX2                !
 ! R15   R(7,9)                  1.0791         estimate D2E/DX2                !
 ! R16   R(10,11)                1.3853         estimate D2E/DX2                !
 ! R17   R(10,18)                1.4425         estimate D2E/DX2                !
 ! R18   R(11,12)                1.4123         estimate D2E/DX2                !
 ! R19   R(11,89)                1.0841         estimate D2E/DX2                !
 ! R20   R(12,13)                1.3823         estimate D2E/DX2                !
 ! R21   R(12,88)                1.0832         estimate D2E/DX2                !
 ! R22   R(13,14)                1.4385         estimate D2E/DX2                !
 ! R23   R(13,19)                1.4739         estimate D2E/DX2                !
 ! R24   R(14,15)                1.3349         estimate D2E/DX2                !
 ! R25   R(14,18)                1.4595         estimate D2E/DX2                !
 ! R26   R(15,16)                1.6348         estimate D2E/DX2                !
 ! R27   R(16,17)                1.6397         estimate D2E/DX2                !
 ! R28   R(17,18)                1.3337         estimate D2E/DX2                !
 ! R29   R(19,20)                1.4058         estimate D2E/DX2                !
 ! R30   R(19,24)                1.4059         estimate D2E/DX2                !
 ! R31   R(20,21)                1.3861         estimate D2E/DX2                !
 ! R32   R(20,87)                1.0808         estimate D2E/DX2                !
 ! R33   R(21,22)                1.4044         estimate D2E/DX2                !
 ! R34   R(21,86)                1.0826         estimate D2E/DX2                !
 ! R35   R(22,23)                1.4046         estimate D2E/DX2                !
 ! R36   R(22,27)                1.4106         estimate D2E/DX2                !
 ! R37   R(23,24)                1.3856         estimate D2E/DX2                !
 ! R38   R(23,26)                1.0825         estimate D2E/DX2                !
 ! R39   R(24,25)                1.0839         estimate D2E/DX2                !
 ! R40   R(27,28)                1.423          estimate D2E/DX2                !
 ! R41   R(27,57)                1.425          estimate D2E/DX2                !
 ! R42   R(28,29)                1.4006         estimate D2E/DX2                !
 ! R43   R(28,33)                1.4            estimate D2E/DX2                !
 ! R44   R(29,30)                1.3885         estimate D2E/DX2                !
 ! R45   R(29,56)                1.0833         estimate D2E/DX2                !
 ! R46   R(30,31)                1.404          estimate D2E/DX2                !
 ! R47   R(30,55)                1.0817         estimate D2E/DX2                !
 ! R48   R(31,32)                1.4038         estimate D2E/DX2                !
 ! R49   R(31,36)                1.4843         estimate D2E/DX2                !
 ! R50   R(32,33)                1.3892         estimate D2E/DX2                !
 ! R51   R(32,35)                1.0843         estimate D2E/DX2                !
 ! R52   R(33,34)                1.0834         estimate D2E/DX2                !
 ! R53   R(36,37)                1.4071         estimate D2E/DX2                !
 ! R54   R(36,41)                1.4045         estimate D2E/DX2                !
 ! R55   R(37,38)                1.384          estimate D2E/DX2                !
 ! R56   R(37,54)                1.084          estimate D2E/DX2                !
 ! R57   R(38,39)                1.3994         estimate D2E/DX2                !
 ! R58   R(38,53)                1.0829         estimate D2E/DX2                !
 ! R59   R(39,40)                1.3948         estimate D2E/DX2                !
 ! R60   R(39,48)                1.3619         estimate D2E/DX2                !
 ! R61   R(40,41)                1.3963         estimate D2E/DX2                !
 ! R62   R(40,47)                1.0812         estimate D2E/DX2                !
 ! R63   R(41,42)                1.3816         estimate D2E/DX2                !
 ! R64   R(42,43)                1.4302         estimate D2E/DX2                !
 ! R65   R(43,44)                1.0961         estimate D2E/DX2                !
 ! R66   R(43,45)                1.0898         estimate D2E/DX2                !
 ! R67   R(43,46)                1.0944         estimate D2E/DX2                !
 ! R68   R(48,49)                1.421          estimate D2E/DX2                !
 ! R69   R(49,50)                1.0887         estimate D2E/DX2                !
 ! R70   R(49,51)                1.0955         estimate D2E/DX2                !
 ! R71   R(49,52)                1.0958         estimate D2E/DX2                !
 ! R72   R(57,58)                1.4002         estimate D2E/DX2                !
 ! R73   R(57,62)                1.3989         estimate D2E/DX2                !
 ! R74   R(58,59)                1.3882         estimate D2E/DX2                !
 ! R75   R(58,85)                1.0835         estimate D2E/DX2                !
 ! R76   R(59,60)                1.4034         estimate D2E/DX2                !
 ! R77   R(59,84)                1.0816         estimate D2E/DX2                !
 ! R78   R(60,61)                1.403          estimate D2E/DX2                !
 ! R79   R(60,65)                1.485          estimate D2E/DX2                !
 ! R80   R(61,62)                1.3895         estimate D2E/DX2                !
 ! R81   R(61,64)                1.0842         estimate D2E/DX2                !
 ! R82   R(62,63)                1.0834         estimate D2E/DX2                !
 ! R83   R(65,66)                1.4105         estimate D2E/DX2                !
 ! R84   R(65,70)                1.4016         estimate D2E/DX2                !
 ! R85   R(66,67)                1.3998         estimate D2E/DX2                !
 ! R86   R(66,79)                1.3654         estimate D2E/DX2                !
 ! R87   R(67,68)                1.398          estimate D2E/DX2                !
 ! R88   R(67,78)                1.0785         estimate D2E/DX2                !
 ! R89   R(68,69)                1.3953         estimate D2E/DX2                !
 ! R90   R(68,73)                1.3633         estimate D2E/DX2                !
 ! R91   R(69,70)                1.386          estimate D2E/DX2                !
 ! R92   R(69,72)                1.0824         estimate D2E/DX2                !
 ! R93   R(70,71)                1.084          estimate D2E/DX2                !
 ! R94   R(73,74)                1.4193         estimate D2E/DX2                !
 ! R95   R(74,75)                1.0961         estimate D2E/DX2                !
 ! R96   R(74,76)                1.0888         estimate D2E/DX2                !
 ! R97   R(74,77)                1.096          estimate D2E/DX2                !
 ! R98   R(79,80)                1.419          estimate D2E/DX2                !
 ! R99   R(80,81)                1.096          estimate D2E/DX2                !
 ! R100  R(80,82)                1.0957         estimate D2E/DX2                !
 ! R101  R(80,83)                1.0889         estimate D2E/DX2                !
 ! R102  R(90,91)                1.7719         estimate D2E/DX2                !
 ! R103  R(91,92)                1.3883         estimate D2E/DX2                !
 ! R104  R(91,94)                1.4515         estimate D2E/DX2                !
 ! R105  R(92,93)                1.0818         estimate D2E/DX2                !
 ! R106  R(94,95)                1.4111         estimate D2E/DX2                !
 ! R107  R(94,99)                1.4123         estimate D2E/DX2                !
 ! R108  R(95,96)                1.38           estimate D2E/DX2                !
 ! R109  R(95,112)               1.0825         estimate D2E/DX2                !
 ! R110  R(96,97)                1.4122         estimate D2E/DX2                !
 ! R111  R(96,111)               1.0847         estimate D2E/DX2                !
 ! R112  R(97,98)                1.4116         estimate D2E/DX2                !
 ! R113  R(97,102)               1.4419         estimate D2E/DX2                !
 ! R114  R(98,99)                1.3803         estimate D2E/DX2                !
 ! R115  R(98,101)               1.0812         estimate D2E/DX2                !
 ! R116  R(99,100)               1.0838         estimate D2E/DX2                !
 ! R117  R(102,103)              1.3619         estimate D2E/DX2                !
 ! R118  R(102,110)              1.0871         estimate D2E/DX2                !
 ! R119  R(103,104)              1.4199         estimate D2E/DX2                !
 ! R120  R(103,106)              1.508          estimate D2E/DX2                !
 ! R121  R(104,105)              1.1591         estimate D2E/DX2                !
 ! R122  R(106,107)              1.2018         estimate D2E/DX2                !
 ! R123  R(106,108)              1.3497         estimate D2E/DX2                !
 ! R124  R(108,109)              0.9677         estimate D2E/DX2                !
 ! R125  R(113,114)              1.0918         estimate D2E/DX2                !
 ! R126  R(113,115)              1.0936         estimate D2E/DX2                !
 ! R127  R(113,116)              1.0931         estimate D2E/DX2                !
 ! R128  R(117,118)              1.0918         estimate D2E/DX2                !
 ! R129  R(117,119)              1.0932         estimate D2E/DX2                !
 ! R130  R(117,120)              1.0936         estimate D2E/DX2                !
 ! A1    A(2,1,8)              100.102          estimate D2E/DX2                !
 ! A2    A(2,1,113)            111.548          estimate D2E/DX2                !
 ! A3    A(2,1,117)            111.5061         estimate D2E/DX2                !
 ! A4    A(8,1,113)            111.4182         estimate D2E/DX2                !
 ! A5    A(8,1,117)            111.3793         estimate D2E/DX2                !
 ! A6    A(113,1,117)          110.5214         estimate D2E/DX2                !
 ! A7    A(1,2,3)              110.6861         estimate D2E/DX2                !
 ! A8    A(1,2,92)             136.5162         estimate D2E/DX2                !
 ! A9    A(3,2,92)             112.7975         estimate D2E/DX2                !
 ! A10   A(2,3,4)              109.1863         estimate D2E/DX2                !
 ! A11   A(2,3,90)             112.4223         estimate D2E/DX2                !
 ! A12   A(4,3,90)             138.391          estimate D2E/DX2                !
 ! A13   A(3,4,5)              138.5072         estimate D2E/DX2                !
 ! A14   A(3,4,8)              109.118          estimate D2E/DX2                !
 ! A15   A(5,4,8)              112.3743         estimate D2E/DX2                !
 ! A16   A(4,5,6)               90.7786         estimate D2E/DX2                !
 ! A17   A(5,6,7)              110.6412         estimate D2E/DX2                !
 ! A18   A(5,6,10)             119.8895         estimate D2E/DX2                !
 ! A19   A(7,6,10)             129.4693         estimate D2E/DX2                !
 ! A20   A(6,7,8)              113.0448         estimate D2E/DX2                !
 ! A21   A(6,7,9)              121.2806         estimate D2E/DX2                !
 ! A22   A(8,7,9)              125.6747         estimate D2E/DX2                !
 ! A23   A(1,8,4)              110.9072         estimate D2E/DX2                !
 ! A24   A(1,8,7)              135.932          estimate D2E/DX2                !
 ! A25   A(4,8,7)              113.1608         estimate D2E/DX2                !
 ! A26   A(6,10,11)            122.6341         estimate D2E/DX2                !
 ! A27   A(6,10,18)            122.6506         estimate D2E/DX2                !
 ! A28   A(11,10,18)           114.7151         estimate D2E/DX2                !
 ! A29   A(10,11,12)           124.0115         estimate D2E/DX2                !
 ! A30   A(10,11,89)           119.0739         estimate D2E/DX2                !
 ! A31   A(12,11,89)           116.9115         estimate D2E/DX2                !
 ! A32   A(11,12,13)           123.8718         estimate D2E/DX2                !
 ! A33   A(11,12,88)           117.3263         estimate D2E/DX2                !
 ! A34   A(13,12,88)           118.7835         estimate D2E/DX2                !
 ! A35   A(12,13,14)           114.7366         estimate D2E/DX2                !
 ! A36   A(12,13,19)           121.9392         estimate D2E/DX2                !
 ! A37   A(14,13,19)           123.3231         estimate D2E/DX2                !
 ! A38   A(13,14,15)           125.5036         estimate D2E/DX2                !
 ! A39   A(13,14,18)           121.6112         estimate D2E/DX2                !
 ! A40   A(15,14,18)           112.8767         estimate D2E/DX2                !
 ! A41   A(14,15,16)           107.4324         estimate D2E/DX2                !
 ! A42   A(15,16,17)            99.4471         estimate D2E/DX2                !
 ! A43   A(16,17,18)           107.3055         estimate D2E/DX2                !
 ! A44   A(10,18,14)           121.0521         estimate D2E/DX2                !
 ! A45   A(10,18,17)           126.0095         estimate D2E/DX2                !
 ! A46   A(14,18,17)           112.9372         estimate D2E/DX2                !
 ! A47   A(13,19,20)           122.4691         estimate D2E/DX2                !
 ! A48   A(13,19,24)           120.4354         estimate D2E/DX2                !
 ! A49   A(20,19,24)           117.0749         estimate D2E/DX2                !
 ! A50   A(19,20,21)           121.4664         estimate D2E/DX2                !
 ! A51   A(19,20,87)           119.5929         estimate D2E/DX2                !
 ! A52   A(21,20,87)           118.9389         estimate D2E/DX2                !
 ! A53   A(20,21,22)           120.9843         estimate D2E/DX2                !
 ! A54   A(20,21,86)           119.5682         estimate D2E/DX2                !
 ! A55   A(22,21,86)           119.4475         estimate D2E/DX2                !
 ! A56   A(21,22,23)           117.9993         estimate D2E/DX2                !
 ! A57   A(21,22,27)           121.0019         estimate D2E/DX2                !
 ! A58   A(23,22,27)           120.9985         estimate D2E/DX2                !
 ! A59   A(22,23,24)           120.6239         estimate D2E/DX2                !
 ! A60   A(22,23,26)           119.6394         estimate D2E/DX2                !
 ! A61   A(24,23,26)           119.7359         estimate D2E/DX2                !
 ! A62   A(19,24,23)           121.8468         estimate D2E/DX2                !
 ! A63   A(19,24,25)           119.6382         estimate D2E/DX2                !
 ! A64   A(23,24,25)           118.5077         estimate D2E/DX2                !
 ! A65   A(22,27,28)           120.5275         estimate D2E/DX2                !
 ! A66   A(22,27,57)           120.4335         estimate D2E/DX2                !
 ! A67   A(28,27,57)           119.0259         estimate D2E/DX2                !
 ! A68   A(27,28,29)           120.6061         estimate D2E/DX2                !
 ! A69   A(27,28,33)           120.86           estimate D2E/DX2                !
 ! A70   A(29,28,33)           118.5313         estimate D2E/DX2                !
 ! A71   A(28,29,30)           120.7307         estimate D2E/DX2                !
 ! A72   A(28,29,56)           119.3807         estimate D2E/DX2                !
 ! A73   A(30,29,56)           119.8872         estimate D2E/DX2                !
 ! A74   A(29,30,31)           121.2933         estimate D2E/DX2                !
 ! A75   A(29,30,55)           119.3953         estimate D2E/DX2                !
 ! A76   A(31,30,55)           119.3054         estimate D2E/DX2                !
 ! A77   A(30,31,32)           117.4229         estimate D2E/DX2                !
 ! A78   A(30,31,36)           121.9638         estimate D2E/DX2                !
 ! A79   A(32,31,36)           120.5851         estimate D2E/DX2                !
 ! A80   A(31,32,33)           121.5991         estimate D2E/DX2                !
 ! A81   A(31,32,35)           119.4191         estimate D2E/DX2                !
 ! A82   A(33,32,35)           118.9556         estimate D2E/DX2                !
 ! A83   A(28,33,32)           120.4132         estimate D2E/DX2                !
 ! A84   A(28,33,34)           119.5157         estimate D2E/DX2                !
 ! A85   A(32,33,34)           120.0703         estimate D2E/DX2                !
 ! A86   A(31,36,37)           120.2425         estimate D2E/DX2                !
 ! A87   A(31,36,41)           123.2556         estimate D2E/DX2                !
 ! A88   A(37,36,41)           116.4941         estimate D2E/DX2                !
 ! A89   A(36,37,38)           122.5523         estimate D2E/DX2                !
 ! A90   A(36,37,54)           118.5925         estimate D2E/DX2                !
 ! A91   A(38,37,54)           118.8303         estimate D2E/DX2                !
 ! A92   A(37,38,39)           119.8097         estimate D2E/DX2                !
 ! A93   A(37,38,53)           121.422          estimate D2E/DX2                !
 ! A94   A(39,38,53)           118.7556         estimate D2E/DX2                !
 ! A95   A(38,39,40)           119.1949         estimate D2E/DX2                !
 ! A96   A(38,39,48)           116.1977         estimate D2E/DX2                !
 ! A97   A(40,39,48)           124.6072         estimate D2E/DX2                !
 ! A98   A(39,40,41)           120.1958         estimate D2E/DX2                !
 ! A99   A(39,40,47)           122.3341         estimate D2E/DX2                !
 ! A100  A(41,40,47)           117.4674         estimate D2E/DX2                !
 ! A101  A(36,41,40)           121.7497         estimate D2E/DX2                !
 ! A102  A(36,41,42)           121.4474         estimate D2E/DX2                !
 ! A103  A(40,41,42)           116.7913         estimate D2E/DX2                !
 ! A104  A(41,42,43)           114.713          estimate D2E/DX2                !
 ! A105  A(42,43,44)           110.7561         estimate D2E/DX2                !
 ! A106  A(42,43,45)           106.4268         estimate D2E/DX2                !
 ! A107  A(42,43,46)           111.3729         estimate D2E/DX2                !
 ! A108  A(44,43,45)           109.4449         estimate D2E/DX2                !
 ! A109  A(44,43,46)           109.372          estimate D2E/DX2                !
 ! A110  A(45,43,46)           109.4097         estimate D2E/DX2                !
 ! A111  A(39,48,49)           118.4264         estimate D2E/DX2                !
 ! A112  A(48,49,50)           105.8343         estimate D2E/DX2                !
 ! A113  A(48,49,51)           111.4791         estimate D2E/DX2                !
 ! A114  A(48,49,52)           111.5045         estimate D2E/DX2                !
 ! A115  A(50,49,51)           109.3258         estimate D2E/DX2                !
 ! A116  A(50,49,52)           109.2662         estimate D2E/DX2                !
 ! A117  A(51,49,52)           109.3435         estimate D2E/DX2                !
 ! A118  A(27,57,58)           120.5104         estimate D2E/DX2                !
 ! A119  A(27,57,62)           120.9442         estimate D2E/DX2                !
 ! A120  A(58,57,62)           118.544          estimate D2E/DX2                !
 ! A121  A(57,58,59)           120.6969         estimate D2E/DX2                !
 ! A122  A(57,58,85)           119.3428         estimate D2E/DX2                !
 ! A123  A(59,58,85)           119.9591         estimate D2E/DX2                !
 ! A124  A(58,59,60)           121.3826         estimate D2E/DX2                !
 ! A125  A(58,59,84)           119.2147         estimate D2E/DX2                !
 ! A126  A(60,59,84)           119.4007         estimate D2E/DX2                !
 ! A127  A(59,60,61)           117.3168         estimate D2E/DX2                !
 ! A128  A(59,60,65)           122.4721         estimate D2E/DX2                !
 ! A129  A(61,60,65)           120.1741         estimate D2E/DX2                !
 ! A130  A(60,61,62)           121.676          estimate D2E/DX2                !
 ! A131  A(60,61,64)           119.3575         estimate D2E/DX2                !
 ! A132  A(62,61,64)           118.9659         estimate D2E/DX2                !
 ! A133  A(57,62,61)           120.3769         estimate D2E/DX2                !
 ! A134  A(57,62,63)           119.6339         estimate D2E/DX2                !
 ! A135  A(61,62,63)           119.987          estimate D2E/DX2                !
 ! A136  A(60,65,66)           123.0334         estimate D2E/DX2                !
 ! A137  A(60,65,70)           120.0841         estimate D2E/DX2                !
 ! A138  A(66,65,70)           116.8768         estimate D2E/DX2                !
 ! A139  A(65,66,67)           121.1359         estimate D2E/DX2                !
 ! A140  A(65,66,79)           116.5051         estimate D2E/DX2                !
 ! A141  A(67,66,79)           122.3549         estimate D2E/DX2                !
 ! A142  A(66,67,68)           120.0142         estimate D2E/DX2                !
 ! A143  A(66,67,78)           119.8175         estimate D2E/DX2                !
 ! A144  A(68,67,78)           120.1676         estimate D2E/DX2                !
 ! A145  A(67,68,69)           119.8706         estimate D2E/DX2                !
 ! A146  A(67,68,73)           124.0013         estimate D2E/DX2                !
 ! A147  A(69,68,73)           116.1279         estimate D2E/DX2                !
 ! A148  A(68,69,70)           119.229          estimate D2E/DX2                !
 ! A149  A(68,69,72)           119.0607         estimate D2E/DX2                !
 ! A150  A(70,69,72)           121.7075         estimate D2E/DX2                !
 ! A151  A(65,70,69)           122.8734         estimate D2E/DX2                !
 ! A152  A(65,70,71)           118.272          estimate D2E/DX2                !
 ! A153  A(69,70,71)           118.8433         estimate D2E/DX2                !
 ! A154  A(68,73,74)           118.8857         estimate D2E/DX2                !
 ! A155  A(73,74,75)           111.5883         estimate D2E/DX2                !
 ! A156  A(73,74,76)           105.8306         estimate D2E/DX2                !
 ! A157  A(73,74,77)           111.6003         estimate D2E/DX2                !
 ! A158  A(75,74,76)           109.1649         estimate D2E/DX2                !
 ! A159  A(75,74,77)           109.4066         estimate D2E/DX2                !
 ! A160  A(76,74,77)           109.1481         estimate D2E/DX2                !
 ! A161  A(66,79,80)           119.3953         estimate D2E/DX2                !
 ! A162  A(79,80,81)           111.7042         estimate D2E/DX2                !
 ! A163  A(79,80,82)           111.5615         estimate D2E/DX2                !
 ! A164  A(79,80,83)           105.701          estimate D2E/DX2                !
 ! A165  A(81,80,82)           109.4439         estimate D2E/DX2                !
 ! A166  A(81,80,83)           109.1523         estimate D2E/DX2                !
 ! A167  A(82,80,83)           109.1697         estimate D2E/DX2                !
 ! A168  A(3,90,91)             90.9093         estimate D2E/DX2                !
 ! A169  A(90,91,92)           110.5397         estimate D2E/DX2                !
 ! A170  A(90,91,94)           120.941          estimate D2E/DX2                !
 ! A171  A(92,91,94)           128.5193         estimate D2E/DX2                !
 ! A172  A(2,92,91)            113.3309         estimate D2E/DX2                !
 ! A173  A(2,92,93)            124.2752         estimate D2E/DX2                !
 ! A174  A(91,92,93)           122.3814         estimate D2E/DX2                !
 ! A175  A(91,94,95)           120.9022         estimate D2E/DX2                !
 ! A176  A(91,94,99)           121.8515         estimate D2E/DX2                !
 ! A177  A(95,94,99)           117.2463         estimate D2E/DX2                !
 ! A178  A(94,95,96)           120.9663         estimate D2E/DX2                !
 ! A179  A(94,95,112)          119.9493         estimate D2E/DX2                !
 ! A180  A(96,95,112)          119.0753         estimate D2E/DX2                !
 ! A181  A(95,96,97)           121.7981         estimate D2E/DX2                !
 ! A182  A(95,96,111)          119.3241         estimate D2E/DX2                !
 ! A183  A(97,96,111)          118.8756         estimate D2E/DX2                !
 ! A184  A(96,97,98)           117.2506         estimate D2E/DX2                !
 ! A185  A(96,97,102)          117.4201         estimate D2E/DX2                !
 ! A186  A(98,97,102)          125.3291         estimate D2E/DX2                !
 ! A187  A(97,98,99)           120.9371         estimate D2E/DX2                !
 ! A188  A(97,98,101)          120.4769         estimate D2E/DX2                !
 ! A189  A(99,98,101)          118.5847         estimate D2E/DX2                !
 ! A190  A(94,99,98)           121.8            estimate D2E/DX2                !
 ! A191  A(94,99,100)          119.6272         estimate D2E/DX2                !
 ! A192  A(98,99,100)          118.568          estimate D2E/DX2                !
 ! A193  A(97,102,103)         132.12           estimate D2E/DX2                !
 ! A194  A(97,102,110)         115.3998         estimate D2E/DX2                !
 ! A195  A(103,102,110)        112.4802         estimate D2E/DX2                !
 ! A196  A(102,103,104)        125.3026         estimate D2E/DX2                !
 ! A197  A(102,103,106)        117.5031         estimate D2E/DX2                !
 ! A198  A(104,103,106)        117.1942         estimate D2E/DX2                !
 ! A199  A(103,106,107)        122.7874         estimate D2E/DX2                !
 ! A200  A(103,106,108)        116.514          estimate D2E/DX2                !
 ! A201  A(107,106,108)        120.6986         estimate D2E/DX2                !
 ! A202  A(106,108,109)        111.4844         estimate D2E/DX2                !
 ! A203  A(1,113,114)          111.0233         estimate D2E/DX2                !
 ! A204  A(1,113,115)          110.5755         estimate D2E/DX2                !
 ! A205  A(1,113,116)          110.4391         estimate D2E/DX2                !
 ! A206  A(114,113,115)        108.3585         estimate D2E/DX2                !
 ! A207  A(114,113,116)        108.3235         estimate D2E/DX2                !
 ! A208  A(115,113,116)        108.0255         estimate D2E/DX2                !
 ! A209  A(1,117,118)          111.037          estimate D2E/DX2                !
 ! A210  A(1,117,119)          110.42           estimate D2E/DX2                !
 ! A211  A(1,117,120)          110.592          estimate D2E/DX2                !
 ! A212  A(118,117,119)        108.3033         estimate D2E/DX2                !
 ! A213  A(118,117,120)        108.3706         estimate D2E/DX2                !
 ! A214  A(119,117,120)        108.0218         estimate D2E/DX2                !
 ! A215  L(103,104,105,1,-1)   184.7603         estimate D2E/DX2                !
 ! A216  L(103,104,105,1,-2)   180.1557         estimate D2E/DX2                !
 ! D1    D(8,1,2,3)             -0.1469         estimate D2E/DX2                !
 ! D2    D(8,1,2,92)          -179.9574         estimate D2E/DX2                !
 ! D3    D(113,1,2,3)          117.8321         estimate D2E/DX2                !
 ! D4    D(113,1,2,92)         -61.9785         estimate D2E/DX2                !
 ! D5    D(117,1,2,3)         -118.0639         estimate D2E/DX2                !
 ! D6    D(117,1,2,92)          62.1256         estimate D2E/DX2                !
 ! D7    D(2,1,8,4)              0.0355         estimate D2E/DX2                !
 ! D8    D(2,1,8,7)            179.9771         estimate D2E/DX2                !
 ! D9    D(113,1,8,4)         -118.0395         estimate D2E/DX2                !
 ! D10   D(113,1,8,7)           61.9022         estimate D2E/DX2                !
 ! D11   D(117,1,8,4)          118.0463         estimate D2E/DX2                !
 ! D12   D(117,1,8,7)          -62.0121         estimate D2E/DX2                !
 ! D13   D(2,1,113,114)        -55.2673         estimate D2E/DX2                !
 ! D14   D(2,1,113,115)         65.0431         estimate D2E/DX2                !
 ! D15   D(2,1,113,116)       -175.4435         estimate D2E/DX2                !
 ! D16   D(8,1,113,114)         55.6774         estimate D2E/DX2                !
 ! D17   D(8,1,113,115)        175.9878         estimate D2E/DX2                !
 ! D18   D(8,1,113,116)        -64.4988         estimate D2E/DX2                !
 ! D19   D(117,1,113,114)     -179.9243         estimate D2E/DX2                !
 ! D20   D(117,1,113,115)      -59.6138         estimate D2E/DX2                !
 ! D21   D(117,1,113,116)       59.8996         estimate D2E/DX2                !
 ! D22   D(2,1,117,118)         55.044          estimate D2E/DX2                !
 ! D23   D(2,1,117,119)        175.191          estimate D2E/DX2                !
 ! D24   D(2,1,117,120)        -65.3018         estimate D2E/DX2                !
 ! D25   D(8,1,117,118)        -55.8546         estimate D2E/DX2                !
 ! D26   D(8,1,117,119)         64.2925         estimate D2E/DX2                !
 ! D27   D(8,1,117,120)       -176.2004         estimate D2E/DX2                !
 ! D28   D(113,1,117,118)      179.7248         estimate D2E/DX2                !
 ! D29   D(113,1,117,119)      -60.1282         estimate D2E/DX2                !
 ! D30   D(113,1,117,120)       59.379          estimate D2E/DX2                !
 ! D31   D(1,2,3,4)              0.2067         estimate D2E/DX2                !
 ! D32   D(1,2,3,90)          -179.9694         estimate D2E/DX2                !
 ! D33   D(92,2,3,4)          -179.9347         estimate D2E/DX2                !
 ! D34   D(92,2,3,90)           -0.1108         estimate D2E/DX2                !
 ! D35   D(1,2,92,91)          179.7709         estimate D2E/DX2                !
 ! D36   D(1,2,92,93)            1.0376         estimate D2E/DX2                !
 ! D37   D(3,2,92,91)           -0.0369         estimate D2E/DX2                !
 ! D38   D(3,2,92,93)         -178.7702         estimate D2E/DX2                !
 ! D39   D(2,3,4,5)           -179.8843         estimate D2E/DX2                !
 ! D40   D(2,3,4,8)             -0.1807         estimate D2E/DX2                !
 ! D41   D(90,3,4,5)             0.3609         estimate D2E/DX2                !
 ! D42   D(90,3,4,8)          -179.9354         estimate D2E/DX2                !
 ! D43   D(2,3,90,91)            0.1701         estimate D2E/DX2                !
 ! D44   D(4,3,90,91)          179.9195         estimate D2E/DX2                !
 ! D45   D(3,4,5,6)            179.8465         estimate D2E/DX2                !
 ! D46   D(8,4,5,6)              0.1493         estimate D2E/DX2                !
 ! D47   D(3,4,8,1)              0.0829         estimate D2E/DX2                !
 ! D48   D(3,4,8,7)           -179.873          estimate D2E/DX2                !
 ! D49   D(5,4,8,1)            179.8705         estimate D2E/DX2                !
 ! D50   D(5,4,8,7)             -0.0853         estimate D2E/DX2                !
 ! D51   D(4,5,6,7)             -0.1777         estimate D2E/DX2                !
 ! D52   D(4,5,6,10)           179.8233         estimate D2E/DX2                !
 ! D53   D(5,6,7,8)              0.1639         estimate D2E/DX2                !
 ! D54   D(5,6,7,9)           -179.7958         estimate D2E/DX2                !
 ! D55   D(10,6,7,8)          -179.8373         estimate D2E/DX2                !
 ! D56   D(10,6,7,9)             0.203          estimate D2E/DX2                !
 ! D57   D(5,6,10,11)         -135.0012         estimate D2E/DX2                !
 ! D58   D(5,6,10,18)           44.8213         estimate D2E/DX2                !
 ! D59   D(7,6,10,11)           45.0            estimate D2E/DX2                !
 ! D60   D(7,6,10,18)         -135.1775         estimate D2E/DX2                !
 ! D61   D(6,7,8,1)           -179.9952         estimate D2E/DX2                !
 ! D62   D(6,7,8,4)             -0.0545         estimate D2E/DX2                !
 ! D63   D(9,7,8,1)             -0.0376         estimate D2E/DX2                !
 ! D64   D(9,7,8,4)            179.9031         estimate D2E/DX2                !
 ! D65   D(6,10,11,12)         179.4026         estimate D2E/DX2                !
 ! D66   D(6,10,11,89)           0.0584         estimate D2E/DX2                !
 ! D67   D(18,10,11,12)         -0.433          estimate D2E/DX2                !
 ! D68   D(18,10,11,89)       -179.7771         estimate D2E/DX2                !
 ! D69   D(6,10,18,14)        -179.4691         estimate D2E/DX2                !
 ! D70   D(6,10,18,17)           0.9579         estimate D2E/DX2                !
 ! D71   D(11,10,18,14)          0.3664         estimate D2E/DX2                !
 ! D72   D(11,10,18,17)       -179.2066         estimate D2E/DX2                !
 ! D73   D(10,11,12,13)          0.4073         estimate D2E/DX2                !
 ! D74   D(10,11,12,88)       -178.0106         estimate D2E/DX2                !
 ! D75   D(89,11,12,13)        179.7645         estimate D2E/DX2                !
 ! D76   D(89,11,12,88)          1.3465         estimate D2E/DX2                !
 ! D77   D(11,12,13,14)         -0.2572         estimate D2E/DX2                !
 ! D78   D(11,12,13,19)        179.3601         estimate D2E/DX2                !
 ! D79   D(88,12,13,14)        178.1392         estimate D2E/DX2                !
 ! D80   D(88,12,13,19)         -2.2435         estimate D2E/DX2                !
 ! D81   D(12,13,14,15)        179.0611         estimate D2E/DX2                !
 ! D82   D(12,13,14,18)          0.1978         estimate D2E/DX2                !
 ! D83   D(19,13,14,15)         -0.5502         estimate D2E/DX2                !
 ! D84   D(19,13,14,18)       -179.4136         estimate D2E/DX2                !
 ! D85   D(12,13,19,20)        145.5156         estimate D2E/DX2                !
 ! D86   D(12,13,19,24)        -32.7865         estimate D2E/DX2                !
 ! D87   D(14,13,19,20)        -34.9004         estimate D2E/DX2                !
 ! D88   D(14,13,19,24)        146.7975         estimate D2E/DX2                !
 ! D89   D(13,14,15,16)       -179.2852         estimate D2E/DX2                !
 ! D90   D(18,14,15,16)         -0.3358         estimate D2E/DX2                !
 ! D91   D(13,14,18,10)         -0.2714         estimate D2E/DX2                !
 ! D92   D(13,14,18,17)        179.3535         estimate D2E/DX2                !
 ! D93   D(15,14,18,10)       -179.2671         estimate D2E/DX2                !
 ! D94   D(15,14,18,17)          0.3578         estimate D2E/DX2                !
 ! D95   D(14,15,16,17)          0.2061         estimate D2E/DX2                !
 ! D96   D(15,16,17,18)         -0.0043         estimate D2E/DX2                !
 ! D97   D(16,17,18,10)        179.4145         estimate D2E/DX2                !
 ! D98   D(16,17,18,14)         -0.1882         estimate D2E/DX2                !
 ! D99   D(13,19,20,21)       -177.7159         estimate D2E/DX2                !
 ! D100  D(13,19,20,87)          2.7796         estimate D2E/DX2                !
 ! D101  D(24,19,20,21)          0.6401         estimate D2E/DX2                !
 ! D102  D(24,19,20,87)       -178.8645         estimate D2E/DX2                !
 ! D103  D(13,19,24,23)        177.6251         estimate D2E/DX2                !
 ! D104  D(13,19,24,25)         -3.378          estimate D2E/DX2                !
 ! D105  D(20,19,24,23)         -0.7662         estimate D2E/DX2                !
 ! D106  D(20,19,24,25)        178.2307         estimate D2E/DX2                !
 ! D107  D(19,20,21,22)         -0.1184         estimate D2E/DX2                !
 ! D108  D(19,20,21,86)        179.9067         estimate D2E/DX2                !
 ! D109  D(87,20,21,22)        179.3893         estimate D2E/DX2                !
 ! D110  D(87,20,21,86)         -0.5856         estimate D2E/DX2                !
 ! D111  D(20,21,22,23)         -0.3016         estimate D2E/DX2                !
 ! D112  D(20,21,22,27)        179.8671         estimate D2E/DX2                !
 ! D113  D(86,21,22,23)        179.6734         estimate D2E/DX2                !
 ! D114  D(86,21,22,27)         -0.1579         estimate D2E/DX2                !
 ! D115  D(21,22,23,24)          0.1791         estimate D2E/DX2                !
 ! D116  D(21,22,23,26)       -179.4746         estimate D2E/DX2                !
 ! D117  D(27,22,23,24)       -179.9897         estimate D2E/DX2                !
 ! D118  D(27,22,23,26)          0.3567         estimate D2E/DX2                !
 ! D119  D(21,22,27,28)        146.2799         estimate D2E/DX2                !
 ! D120  D(21,22,27,57)        -35.0443         estimate D2E/DX2                !
 ! D121  D(23,22,27,28)        -33.5463         estimate D2E/DX2                !
 ! D122  D(23,22,27,57)        145.1296         estimate D2E/DX2                !
 ! D123  D(22,23,24,19)          0.368          estimate D2E/DX2                !
 ! D124  D(22,23,24,25)       -178.6398         estimate D2E/DX2                !
 ! D125  D(26,23,24,19)       -179.9787         estimate D2E/DX2                !
 ! D126  D(26,23,24,25)          1.0135         estimate D2E/DX2                !
 ! D127  D(22,27,28,29)        134.7611         estimate D2E/DX2                !
 ! D128  D(22,27,28,33)        -45.8396         estimate D2E/DX2                !
 ! D129  D(57,27,28,29)        -43.9333         estimate D2E/DX2                !
 ! D130  D(57,27,28,33)        135.4661         estimate D2E/DX2                !
 ! D131  D(22,27,57,58)        135.0751         estimate D2E/DX2                !
 ! D132  D(22,27,57,62)        -45.3468         estimate D2E/DX2                !
 ! D133  D(28,27,57,58)        -46.2293         estimate D2E/DX2                !
 ! D134  D(28,27,57,62)        133.3488         estimate D2E/DX2                !
 ! D135  D(27,28,29,30)        179.6201         estimate D2E/DX2                !
 ! D136  D(27,28,29,56)         -0.8146         estimate D2E/DX2                !
 ! D137  D(33,28,29,30)          0.207          estimate D2E/DX2                !
 ! D138  D(33,28,29,56)        179.7722         estimate D2E/DX2                !
 ! D139  D(27,28,33,32)        179.6888         estimate D2E/DX2                !
 ! D140  D(27,28,33,34)         -0.6359         estimate D2E/DX2                !
 ! D141  D(29,28,33,32)         -0.8996         estimate D2E/DX2                !
 ! D142  D(29,28,33,34)        178.7757         estimate D2E/DX2                !
 ! D143  D(28,29,30,31)          0.6606         estimate D2E/DX2                !
 ! D144  D(28,29,30,55)        179.7539         estimate D2E/DX2                !
 ! D145  D(56,29,30,31)       -178.9025         estimate D2E/DX2                !
 ! D146  D(56,29,30,55)          0.1909         estimate D2E/DX2                !
 ! D147  D(29,30,31,32)         -0.8092         estimate D2E/DX2                !
 ! D148  D(29,30,31,36)        177.2703         estimate D2E/DX2                !
 ! D149  D(55,30,31,32)       -179.9033         estimate D2E/DX2                !
 ! D150  D(55,30,31,36)         -1.8239         estimate D2E/DX2                !
 ! D151  D(30,31,32,33)          0.1076         estimate D2E/DX2                !
 ! D152  D(30,31,32,35)       -178.0104         estimate D2E/DX2                !
 ! D153  D(36,31,32,33)       -177.9997         estimate D2E/DX2                !
 ! D154  D(36,31,32,35)          3.8823         estimate D2E/DX2                !
 ! D155  D(30,31,36,37)       -136.468          estimate D2E/DX2                !
 ! D156  D(30,31,36,41)         42.4732         estimate D2E/DX2                !
 ! D157  D(32,31,36,37)         41.5517         estimate D2E/DX2                !
 ! D158  D(32,31,36,41)       -139.5071         estimate D2E/DX2                !
 ! D159  D(31,32,33,28)          0.7499         estimate D2E/DX2                !
 ! D160  D(31,32,33,34)       -178.9235         estimate D2E/DX2                !
 ! D161  D(35,32,33,28)        178.8764         estimate D2E/DX2                !
 ! D162  D(35,32,33,34)         -0.797          estimate D2E/DX2                !
 ! D163  D(31,36,37,38)        178.7826         estimate D2E/DX2                !
 ! D164  D(31,36,37,54)          0.6182         estimate D2E/DX2                !
 ! D165  D(41,36,37,38)         -0.2281         estimate D2E/DX2                !
 ! D166  D(41,36,37,54)       -178.3925         estimate D2E/DX2                !
 ! D167  D(31,36,41,40)       -178.6163         estimate D2E/DX2                !
 ! D168  D(31,36,41,42)          0.1052         estimate D2E/DX2                !
 ! D169  D(37,36,41,40)          0.3616         estimate D2E/DX2                !
 ! D170  D(37,36,41,42)        179.0831         estimate D2E/DX2                !
 ! D171  D(36,37,38,39)         -0.2745         estimate D2E/DX2                !
 ! D172  D(36,37,38,53)       -178.9564         estimate D2E/DX2                !
 ! D173  D(54,37,38,39)        177.8858         estimate D2E/DX2                !
 ! D174  D(54,37,38,53)         -0.7962         estimate D2E/DX2                !
 ! D175  D(37,38,39,40)          0.6485         estimate D2E/DX2                !
 ! D176  D(37,38,39,48)       -179.2124         estimate D2E/DX2                !
 ! D177  D(53,38,39,40)        179.3655         estimate D2E/DX2                !
 ! D178  D(53,38,39,48)         -0.4954         estimate D2E/DX2                !
 ! D179  D(38,39,40,41)         -0.5188         estimate D2E/DX2                !
 ! D180  D(38,39,40,47)       -179.9143         estimate D2E/DX2                !
 ! D181  D(48,39,40,41)        179.3296         estimate D2E/DX2                !
 ! D182  D(48,39,40,47)         -0.066          estimate D2E/DX2                !
 ! D183  D(38,39,48,49)        179.0268         estimate D2E/DX2                !
 ! D184  D(40,39,48,49)         -0.8256         estimate D2E/DX2                !
 ! D185  D(39,40,41,36)          0.0063         estimate D2E/DX2                !
 ! D186  D(39,40,41,42)       -178.7718         estimate D2E/DX2                !
 ! D187  D(47,40,41,36)        179.4307         estimate D2E/DX2                !
 ! D188  D(47,40,41,42)          0.6526         estimate D2E/DX2                !
 ! D189  D(36,41,42,43)         81.9517         estimate D2E/DX2                !
 ! D190  D(40,41,42,43)        -99.2662         estimate D2E/DX2                !
 ! D191  D(41,42,43,44)         60.9887         estimate D2E/DX2                !
 ! D192  D(41,42,43,45)        179.8631         estimate D2E/DX2                !
 ! D193  D(41,42,43,46)        -60.9652         estimate D2E/DX2                !
 ! D194  D(39,48,49,50)       -179.2848         estimate D2E/DX2                !
 ! D195  D(39,48,49,51)        -60.5167         estimate D2E/DX2                !
 ! D196  D(39,48,49,52)         62.0051         estimate D2E/DX2                !
 ! D197  D(27,57,58,59)        179.2759         estimate D2E/DX2                !
 ! D198  D(27,57,58,85)         -0.3265         estimate D2E/DX2                !
 ! D199  D(62,57,58,59)         -0.3122         estimate D2E/DX2                !
 ! D200  D(62,57,58,85)       -179.9146         estimate D2E/DX2                !
 ! D201  D(27,57,62,61)       -179.9678         estimate D2E/DX2                !
 ! D202  D(27,57,62,63)          0.564          estimate D2E/DX2                !
 ! D203  D(58,57,62,61)         -0.3815         estimate D2E/DX2                !
 ! D204  D(58,57,62,63)       -179.8498         estimate D2E/DX2                !
 ! D205  D(57,58,59,60)          0.4892         estimate D2E/DX2                !
 ! D206  D(57,58,59,84)        179.9723         estimate D2E/DX2                !
 ! D207  D(85,58,59,60)       -179.9109         estimate D2E/DX2                !
 ! D208  D(85,58,59,84)         -0.4277         estimate D2E/DX2                !
 ! D209  D(58,59,60,61)          0.0321         estimate D2E/DX2                !
 ! D210  D(58,59,60,65)       -177.7564         estimate D2E/DX2                !
 ! D211  D(84,59,60,61)       -179.4501         estimate D2E/DX2                !
 ! D212  D(84,59,60,65)          2.7614         estimate D2E/DX2                !
 ! D213  D(59,60,61,62)         -0.7372         estimate D2E/DX2                !
 ! D214  D(59,60,61,64)        178.9778         estimate D2E/DX2                !
 ! D215  D(65,60,61,62)        177.1047         estimate D2E/DX2                !
 ! D216  D(65,60,61,64)         -3.1803         estimate D2E/DX2                !
 ! D217  D(59,60,65,66)        -46.2906         estimate D2E/DX2                !
 ! D218  D(59,60,65,70)        134.6078         estimate D2E/DX2                !
 ! D219  D(61,60,65,66)        135.9822         estimate D2E/DX2                !
 ! D220  D(61,60,65,70)        -43.1193         estimate D2E/DX2                !
 ! D221  D(60,61,62,57)          0.9246         estimate D2E/DX2                !
 ! D222  D(60,61,62,63)       -179.609          estimate D2E/DX2                !
 ! D223  D(64,61,62,57)       -178.7914         estimate D2E/DX2                !
 ! D224  D(64,61,62,63)          0.6749         estimate D2E/DX2                !
 ! D225  D(60,65,66,67)       -179.0192         estimate D2E/DX2                !
 ! D226  D(60,65,66,79)          0.259          estimate D2E/DX2                !
 ! D227  D(70,65,66,67)          0.1093         estimate D2E/DX2                !
 ! D228  D(70,65,66,79)        179.3874         estimate D2E/DX2                !
 ! D229  D(60,65,70,69)        179.1364         estimate D2E/DX2                !
 ! D230  D(60,65,70,71)         -2.1085         estimate D2E/DX2                !
 ! D231  D(66,65,70,69)         -0.0192         estimate D2E/DX2                !
 ! D232  D(66,65,70,71)        178.7359         estimate D2E/DX2                !
 ! D233  D(65,66,67,68)         -0.1351         estimate D2E/DX2                !
 ! D234  D(65,66,67,78)        179.5545         estimate D2E/DX2                !
 ! D235  D(79,66,67,68)       -179.3703         estimate D2E/DX2                !
 ! D236  D(79,66,67,78)          0.3192         estimate D2E/DX2                !
 ! D237  D(65,66,79,80)       -176.3791         estimate D2E/DX2                !
 ! D238  D(67,66,79,80)          2.8894         estimate D2E/DX2                !
 ! D239  D(66,67,68,69)          0.0673         estimate D2E/DX2                !
 ! D240  D(66,67,68,73)       -179.7328         estimate D2E/DX2                !
 ! D241  D(78,67,68,69)       -179.6211         estimate D2E/DX2                !
 ! D242  D(78,67,68,73)          0.5787         estimate D2E/DX2                !
 ! D243  D(67,68,69,70)          0.0212         estimate D2E/DX2                !
 ! D244  D(67,68,69,72)       -179.3807         estimate D2E/DX2                !
 ! D245  D(73,68,69,70)        179.8366         estimate D2E/DX2                !
 ! D246  D(73,68,69,72)          0.4347         estimate D2E/DX2                !
 ! D247  D(67,68,73,74)         -0.1189         estimate D2E/DX2                !
 ! D248  D(69,68,73,74)       -179.9258         estimate D2E/DX2                !
 ! D249  D(68,69,70,65)         -0.0454         estimate D2E/DX2                !
 ! D250  D(68,69,70,71)       -178.7937         estimate D2E/DX2                !
 ! D251  D(72,69,70,65)        179.3401         estimate D2E/DX2                !
 ! D252  D(72,69,70,71)          0.5918         estimate D2E/DX2                !
 ! D253  D(68,73,74,75)         61.3151         estimate D2E/DX2                !
 ! D254  D(68,73,74,76)        179.9463         estimate D2E/DX2                !
 ! D255  D(68,73,74,77)        -61.4362         estimate D2E/DX2                !
 ! D256  D(66,79,80,81)        -63.1767         estimate D2E/DX2                !
 ! D257  D(66,79,80,82)         59.6789         estimate D2E/DX2                !
 ! D258  D(66,79,80,83)        178.2233         estimate D2E/DX2                !
 ! D259  D(3,90,91,92)          -0.1879         estimate D2E/DX2                !
 ! D260  D(3,90,91,94)         179.8423         estimate D2E/DX2                !
 ! D261  D(90,91,92,2)           0.162          estimate D2E/DX2                !
 ! D262  D(90,91,92,93)        178.9225         estimate D2E/DX2                !
 ! D263  D(94,91,92,2)        -179.8711         estimate D2E/DX2                !
 ! D264  D(94,91,92,93)         -1.1106         estimate D2E/DX2                !
 ! D265  D(90,91,94,95)        167.3212         estimate D2E/DX2                !
 ! D266  D(90,91,94,99)        -12.7595         estimate D2E/DX2                !
 ! D267  D(92,91,94,95)        -12.6427         estimate D2E/DX2                !
 ! D268  D(92,91,94,99)        167.2767         estimate D2E/DX2                !
 ! D269  D(91,94,95,96)        179.5853         estimate D2E/DX2                !
 ! D270  D(91,94,95,112)        -1.5187         estimate D2E/DX2                !
 ! D271  D(99,94,95,96)         -0.3376         estimate D2E/DX2                !
 ! D272  D(99,94,95,112)       178.5584         estimate D2E/DX2                !
 ! D273  D(91,94,99,98)       -179.92           estimate D2E/DX2                !
 ! D274  D(91,94,99,100)        -0.7322         estimate D2E/DX2                !
 ! D275  D(95,94,99,98)          0.0021         estimate D2E/DX2                !
 ! D276  D(95,94,99,100)       179.19           estimate D2E/DX2                !
 ! D277  D(94,95,96,97)          0.3904         estimate D2E/DX2                !
 ! D278  D(94,95,96,111)       179.8397         estimate D2E/DX2                !
 ! D279  D(112,95,96,97)      -178.5151         estimate D2E/DX2                !
 ! D280  D(112,95,96,111)        0.9342         estimate D2E/DX2                !
 ! D281  D(95,96,97,98)         -0.0956         estimate D2E/DX2                !
 ! D282  D(95,96,97,102)       179.7773         estimate D2E/DX2                !
 ! D283  D(111,96,97,98)      -179.5474         estimate D2E/DX2                !
 ! D284  D(111,96,97,102)        0.3256         estimate D2E/DX2                !
 ! D285  D(96,97,98,99)         -0.2406         estimate D2E/DX2                !
 ! D286  D(96,97,98,101)      -179.8377         estimate D2E/DX2                !
 ! D287  D(102,97,98,99)       179.8976         estimate D2E/DX2                !
 ! D288  D(102,97,98,101)        0.3005         estimate D2E/DX2                !
 ! D289  D(96,97,102,103)      179.6822         estimate D2E/DX2                !
 ! D290  D(96,97,102,110)       -0.2809         estimate D2E/DX2                !
 ! D291  D(98,97,102,103)       -0.4562         estimate D2E/DX2                !
 ! D292  D(98,97,102,110)      179.5807         estimate D2E/DX2                !
 ! D293  D(97,98,99,94)          0.2889         estimate D2E/DX2                !
 ! D294  D(97,98,99,100)      -178.9073         estimate D2E/DX2                !
 ! D295  D(101,98,99,94)       179.8934         estimate D2E/DX2                !
 ! D296  D(101,98,99,100)        0.6972         estimate D2E/DX2                !
 ! D297  D(97,102,103,104)      -0.0243         estimate D2E/DX2                !
 ! D298  D(97,102,103,106)     179.9818         estimate D2E/DX2                !
 ! D299  D(110,102,103,104)    179.9395         estimate D2E/DX2                !
 ! D300  D(110,102,103,106)     -0.0544         estimate D2E/DX2                !
 ! D301  D(102,103,106,107)      0.074          estimate D2E/DX2                !
 ! D302  D(102,103,106,108)   -179.9243         estimate D2E/DX2                !
 ! D303  D(104,103,106,107)   -179.9204         estimate D2E/DX2                !
 ! D304  D(104,103,106,108)      0.0813         estimate D2E/DX2                !
 ! D305  D(103,106,108,109)     -0.0114         estimate D2E/DX2                !
 ! D306  D(107,106,108,109)    179.9903         estimate D2E/DX2                !
 --------------------------------------------------------------------------------
 Trust Radius=3.00D-01 FncErr=1.00D-07 GrdErr=1.00D-06 EigMax=2.50D+02 EigMin=1.00D-04
 Number of steps in this run=    662 maximum allowed number of steps=    720.
 GradGradGradGradGradGradGradGradGradGradGradGradGradGradGradGradGradGrad

 Stoichiometry    C61H46N4O6S3
 Framework group  C1[X(C61H46N4O6S3)]
 Deg. of freedom   354
 Full point group                 C1      NOp   1
 Largest Abelian subgroup         C1      NOp   1
 Largest concise Abelian subgroup C1      NOp   1
                         Standard orientation:                         
 ---------------------------------------------------------------------
 Center     Atomic      Atomic             Coordinates (Angstroms)
 Number     Number       Type             X           Y           Z
 ---------------------------------------------------------------------
      1          6           0       -7.374058   -3.071204   -1.075545
      2          6           0       -8.488365   -2.068726   -0.779211
      3          6           0       -7.958444   -0.856602   -0.358992
      4          6           0       -6.528527   -0.946708   -0.346920
      5         16           0       -5.173674    0.053267    0.029236
      6          6           0       -4.055241   -1.267764   -0.376524
      7          6           0       -4.755918   -2.397692   -0.771293
      8          6           0       -6.150662   -2.214566   -0.754634
      9          1           0       -4.243603   -3.304433   -1.053690
     10          6           0       -2.621448   -1.061741   -0.266926
     11          6           0       -1.730959   -1.470564   -1.246200
     12          6           0       -0.334107   -1.274506   -1.175392
     13          6           0        0.304640   -0.658676   -0.115497
     14          6           0       -0.568860   -0.213010    0.937001
     15          7           0       -0.181052    0.389328    2.063406
     16         16           0       -1.523677    0.684491    2.948246
     17          7           0       -2.653724    0.054656    1.940894
     18          6           0       -2.013070   -0.412100    0.868286
     19          6           0        1.768218   -0.488589   -0.079508
     20          6           0        2.383385    0.635016    0.499507
     21          6           0        3.759923    0.796345    0.480595
     22          6           0        4.592172   -0.163224   -0.118577
     23          6           0        3.988075   -1.294083   -0.692169
     24          6           0        2.611365   -1.448335   -0.666441
     25          1           0        2.183085   -2.344967   -1.099431
     26          1           0        4.605033   -2.054536   -1.153565
     27          7           0        5.992939    0.001943   -0.140481
     28          6           0        6.855264   -1.126839   -0.055956
     29          6           0        7.957290   -1.248015   -0.911881
     30          6           0        8.804876   -2.344448   -0.826413
     31          6           0        8.579439   -3.369568    0.106143
     32          6           0        7.473840   -3.234629    0.960625
     33          6           0        6.629825   -2.133464    0.890522
     34          1           0        5.793685   -2.046022    1.573832
     35          1           0        7.288123   -3.991235    1.714847
     36          6           0        9.440946   -4.576572    0.170651
     37          6           0        8.864625   -5.851430    0.320450
     38          6           0        9.620353   -7.010197    0.361372
     39          6           0       11.013068   -6.936902    0.245713
     40          6           0       11.619274   -5.688689    0.104028
     41          6           0       10.840906   -4.530014    0.067584
     42          8           0       11.511852   -3.334136   -0.101136
     43          6           0       11.733405   -2.597534    1.104632
     44          1           0       12.345368   -3.175936    1.806276
     45          1           0       12.267623   -1.691726    0.818669
     46          1           0       10.788560   -2.326045    1.585458
     47          1           0       12.690094   -5.573289    0.009292
     48          8           0       11.682367   -8.122563    0.278833
     49          6           0       13.096845   -8.104854    0.144142
     50          1           0       13.412257   -9.146014    0.185704
     51          1           0       13.403155   -7.671206   -0.814163
     52          1           0       13.571274   -7.550436    0.961603
     53          1           0        9.156370   -7.983578    0.460594
     54          1           0        7.784883   -5.929291    0.376665
     55          1           0        9.647329   -2.418132   -1.500901
     56          1           0        8.142574   -0.478865   -1.651952
     57          6           0        6.564632    1.300148   -0.275940
     58          6           0        7.635155    1.693732    0.536197
     59          6           0        8.204740    2.952017    0.397354
     60          6           0        7.724632    3.871247   -0.548113
     61          6           0        6.644641    3.467760   -1.347661
     62          6           0        6.077860    2.204996   -1.225226
     63          1           0        5.248506    1.919731   -1.861258
     64          1           0        6.236572    4.157930   -2.077464
     65          6           0        8.346136    5.204669   -0.750718
     66          6           0        8.694528    6.060511    0.314918
     67          6           0        9.260320    7.318679    0.077491
     68          6           0        9.491819    7.745186   -1.233555
     69          6           0        9.156550    6.915074   -2.303822
     70          6           0        8.595622    5.673779   -2.047700
     71          1           0        8.355843    5.025895   -2.882996
     72          1           0        9.350780    7.254239   -3.313147
     73          8           0       10.042343    8.949645   -1.557465
     74          6           0       10.407101    9.839630   -0.513812
     75          1           0       11.170016    9.402595    0.140661
     76          1           0       10.818883   10.719987   -1.004557
     77          1           0        9.538803   10.135524    0.086035
     78          1           0        9.511976    7.958893    0.908109
     79          8           0        8.436338    5.601371    1.574590
     80          6           0        8.690528    6.442989    2.688362
     81          1           0        9.755266    6.687083    2.777277
     82          1           0        8.107277    7.368999    2.634739
     83          1           0        8.379913    5.874974    3.563880
     84          1           0        9.030504    3.231303    1.037719
     85          1           0        8.023340    1.002592    1.274841
     86          1           0        4.201173    1.674596    0.934549
     87          1           0        1.775002    1.389101    0.978331
     88          1           0        0.258280   -1.608500   -2.018542
     89          1           0       -2.112910   -1.963816   -2.132857
     90         16           0       -9.178967    0.309044   -0.011051
     91          6           0      -10.448543   -0.852780   -0.433012
     92          6           0       -9.891301   -2.063841   -0.820491
     93          1           0      -10.495462   -2.915685   -1.102663
     94          6           0      -11.851080   -0.488004   -0.351372
     95          6           0      -12.846802   -1.303110   -0.930521
     96          6           0      -14.181296   -0.961952   -0.846364
     97          6           0      -14.609059    0.212780   -0.189580
     98          6           0      -13.612812    1.031526    0.384604
     99          6           0      -12.278670    0.686506    0.306205
    100          1           0      -11.547456    1.333906    0.776075
    101          1           0      -13.882192    1.941772    0.902176
    102          6           0      -16.025706    0.479866   -0.162240
    103          6           0      -16.753361    1.495746    0.379190
    104          6           0      -16.216737    2.599805    1.092784
    105          7           0      -15.868956    3.532974    1.685792
    106          6           0      -18.250985    1.447287    0.209044
    107          8           0      -18.811168    0.559110   -0.375476
    108          8           0      -18.952312    2.464674    0.751991
    109          1           0      -18.370575    3.102675    1.188952
    110          1           0      -16.648925   -0.257215   -0.662385
    111          1           0      -14.924253   -1.606612   -1.303477
    112          1           0      -12.566193   -2.201445   -1.465431
    113          6           0       -7.458443   -4.302979   -0.149027
    114          1           0       -7.453701   -4.004268    0.901088
    115          1           0       -8.374957   -4.867314   -0.342457
    116          1           0       -6.608626   -4.968776   -0.320777
    117          6           0       -7.383485   -3.506437   -2.556683
    118          1           0       -7.328955   -2.640855   -3.219887
    119          1           0       -6.530022   -4.155812   -2.768850
    120          1           0       -8.296781   -4.061394   -2.788688
 ---------------------------------------------------------------------
 Rotational constants (GHZ):           0.0319383           0.0053806           0.0047104
 Standard basis: 6-311G(d,p) (5D, 7F)
 There are  1706 symmetry adapted cartesian basis functions of A   symmetry.
 There are  1632 symmetry adapted basis functions of A   symmetry.
  1632 basis functions,  2778 primitive gaussians,  1706 cartesian basis functions
   268 alpha electrons      268 beta electrons
       nuclear repulsion energy     10038.4506425685 Hartrees.
 NAtoms=  120 NActive=  120 NUniq=  120 SFac= 1.00D+00 NAtFMM=   60 NAOKFM=T Big=T
 Integral buffers will be    131072 words long.
 Raffenetti 2 integral format.
 Two-electron integral symmetry is turned on.
 One-electron integrals computed using PRISM.
 NBasis=  1632 RedAO= T EigKep=  1.28D-04  NBF=  1632
 NBsUse=  1632 1.00D-06 EigRej= -1.00D+00 NBFU=  1632
 ExpMin= 7.71D-02 ExpMax= 9.34D+04 ExpMxC= 3.17D+03 IAcc=3 IRadAn=         5 AccDes= 0.00D+00
 Harris functional with IExCor=  402 and IRadAn=       5 diagonalized for initial guess.
 HarFok:  IExCor=  402 AccDes= 0.00D+00 IRadAn=         5 IDoV= 1 UseB2=F ITyADJ=14
 ICtDFT=  3500011 ScaDFX=  1.000000  1.000000  1.000000  1.000000
 FoFCou: FMM=F IPFlag=           0 FMFlag=      100000 FMFlg1=        2001
         NFxFlg=           0 DoJE=T BraDBF=F KetDBF=T FulRan=T
         wScrn=  0.000000 ICntrl=       500 IOpCl=  0 I1Cent=   200000004 NGrid=           0
         NMat0=    1 NMatS0=      1 NMatT0=    0 NMatD0=    1 NMtDS0=    0 NMtDT0=    0
 Petite list used in FoFCou.
 Requested convergence on RMS density matrix=1.00D-08 within 128 cycles.
 Requested convergence on MAX density matrix=1.00D-06.
 Requested convergence on             energy=1.00D-06.
 No special actions if energy rises.
 Integral accuracy reduced to 1.0D-05 until final iterations.
 Initial convergence to 1.0D-05 achieved.  Increase integral accuracy.
 SCF Done:  E(RB3LYP) =  -4217.84222692     A.U. after   18 cycles
            NFock= 18  Conv=0.58D-08     -V/T= 2.0032
 Hyperfine terms turned off by default for NAtoms > 100.

 **********************************************************************

            Population analysis using the SCF Density.

 **********************************************************************

 Orbital symmetries:
       Occupied  (A) (A) (A) (A) (A) (A) (A) (A) (A) (A) (A) (A)
                 (A) (A) (A) (A) (A) (A) (A) (A) (A) (A) (A) (A)
                 (A) (A) (A) (A) (A) (A) (A) (A) (A) (A) (A) (A)
                 (A) (A) (A) (A) (A) (A) (A) (A) (A) (A) (A) (A)
                 (A) (A) (A) (A) (A) (A) (A) (A) (A) (A) (A) (A)
                 (A) (A) (A) (A) (A) (A) (A) (A) (A) (A) (A) (A)
                 (A) (A) (A) (A) (A) (A) (A) (A) (A) (A) (A) (A)
                 (A) (A) (A) (A) (A) (A) (A) (A) (A) (A) (A) (A)
                 (A) (A) (A) (A) (A) (A) (A) (A) (A) (A) (A) (A)
                 (A) (A) (A) (A) (A) (A) (A) (A) (A) (A) (A) (A)
                 (A) (A) (A) (A) (A) (A) (A) (A) (A) (A) (A) (A)
                 (A) (A) (A) (A) (A) (A) (A) (A) (A) (A) (A) (A)
                 (A) (A) (A) (A) (A) (A) (A) (A) (A) (A) (A) (A)
                 (A) (A) (A) (A) (A) (A) (A) (A) (A) (A) (A) (A)
                 (A) (A) (A) (A) (A) (A) (A) (A) (A) (A) (A) (A)
                 (A) (A) (A) (A) (A) (A) (A) (A) (A) (A) (A) (A)
                 (A) (A) (A) (A) (A) (A) (A) (A) (A) (A) (A) (A)
                 (A) (A) (A) (A) (A) (A) (A) (A) (A) (A) (A) (A)
                 (A) (A) (A) (A) (A) (A) (A) (A) (A) (A) (A) (A)
                 (A) (A) (A) (A) (A) (A) (A) (A) (A) (A) (A) (A)
                 (A) (A) (A) (A) (A) (A) (A) (A) (A) (A) (A) (A)
                 (A) (A) (A) (A) (A) (A) (A) (A) (A) (A) (A) (A)
                 (A) (A) (A) (A)
       Virtual   (A) (A) (A) (A) (A) (A) (A) (A) (A) (A) (A) (A)
                 (A) (A) (A) (A) (A) (A) (A) (A) (A) (A) (A) (A)
                 (A) (A) (A) (A) (A) (A) (A) (A) (A) (A) (A) (A)
                 (A) (A) (A) (A) (A) (A) (A) (A) (A) (A) (A) (A)
                 (A) (A) (A) (A) (A) (A) (A) (A) (A) (A) (A) (A)
                 (A) (A) (A) (A) (A) (A) (A) (A) (A) (A) (A) (A)
                 (A) (A) (A) (A) (A) (A) (A) (A) (A) (A) (A) (A)
                 (A) (A) (A) (A) (A) (A) (A) (A) (A) (A) (A) (A)
                 (A) (A) (A) (A) (A) (A) (A) (A) (A) (A) (A) (A)
                 (A) (A) (A) (A) (A) (A) (A) (A) (A) (A) (A) (A)
                 (A) (A) (A) (A) (A) (A) (A) (A) (A) (A) (A) (A)
                 (A) (A) (A) (A) (A) (A) (A) (A) (A) (A) (A) (A)
                 (A) (A) (A) (A) (A) (A) (A) (A) (A) (A) (A) (A)
                 (A) (A) (A) (A) (A) (A) (A) (A) (A) (A) (A) (A)
                 (A) (A) (A) (A) (A) (A) (A) (A) (A) (A) (A) (A)
                 (A) (A) (A) (A) (A) (A) (A) (A) (A) (A) (A) (A)
                 (A) (A) (A) (A) (A) (A) (A) (A) (A) (A) (A) (A)
                 (A) (A) (A) (A) (A) (A) (A) (A) (A) (A) (A) (A)
                 (A) (A) (A) (A) (A) (A) (A) (A) (A) (A) (A) (A)
                 (A) (A) (A) (A) (A) (A) (A) (A) (A) (A) (A) (A)
                 (A) (A) (A) (A) (A) (A) (A) (A) (A) (A) (A) (A)
                 (A) (A) (A) (A) (A) (A) (A) (A) (A) (A) (A) (A)
                 (A) (A) (A) (A) (A) (A) (A) (A) (A) (A) (A) (A)
                 (A) (A) (A) (A) (A) (A) (A) (A) (A) (A) (A) (A)
                 (A) (A) (A) (A) (A) (A) (A) (A) (A) (A) (A) (A)
                 (A) (A) (A) (A) (A) (A) (A) (A) (A) (A) (A) (A)
                 (A) (A) (A) (A) (A) (A) (A) (A) (A) (A) (A) (A)
                 (A) (A) (A) (A) (A) (A) (A) (A) (A) (A) (A) (A)
                 (A) (A) (A) (A) (A) (A) (A) (A) (A) (A) (A) (A)
                 (A) (A) (A) (A) (A) (A) (A) (A) (A) (A) (A) (A)
                 (A) (A) (A) (A) (A) (A) (A) (A) (A) (A) (A) (A)
[...]
 000161,-0.00000022,0.00000015,-0.00000167,-0.00000037,0.00000111,0.000
 00104,0.00000057,-0.00000117,-0.00000029,-0.00000049,-0.00000002,0.000
 00007,0.00000019,0.00000007,0.00000001,0.00000017,-0.00000011,-0.00000
 017,0.00000017,-0.00000013,-0.00000329,-0.00000323,-0.00000241,0.00000
 236,0.00000047,0.00000014,-0.00000010,-0.00000020,-0.00000026,-0.00000
 021,0.00000010,0.00000009,-0.00000032,0.00000015,0.00000030,0.00000017
 ,0.00000012,-0.00000022,-0.00000019,0.00000044,-0.00000013,0.00000035,
 0.00000027,-0.00000031,0.00000054,-0.00000018,-0.00000033,-0.00000018,
 -0.00000001,-0.00000109,-0.00000036,-0.00000013,-0.00000006,-0.0000002
 9,0.00000056,0.00000023,0.00000058,-0.00000165,-0.00000060,-0.00000018
 ,0.00000023,0.00000011,0.00000148,0.00000068,-0.00000053,-0.00000021,0
 .00000026,0.00000034,0.00000054,-0.00000048,-0.00000051,-0.00000034,-0
 .00000031,0.00000047,0.00000015,0.00000222,-0.00000227,-0.00000052,0.0
 0000023,0.00000037,0.00000221,-0.00000269,-0.00000260,-0.00000096,0.00
 000012,0.00000168,-0.00000016,-0.00000067,-0.00000042,0.00000032,-0.00
 000002,0.00000040,0.00000035,0.00000006,-0.00000009,-0.00000284,0.0000
 0310,0.00000355,0.00000116,0.00000004,-0.00000270,-0.00000017,-0.00000
 041,0.00000026,-0.00000010,0.00000031,0.00000007,0.00000010,-0.0000001
 8,0.00000028,0.,0.00000005,0.00000027,-0.00000033,-0.00000235,0.000003
 71,0.00000091,0.00000061,-0.00000303,-0.00000049,0.00000017,0.00000026
 ,0.,0.00000025,0.00000030,0.00000017,-0.00000025,-0.00000004,-0.000000
 33,-0.00000018,0.00000011,-0.00000006,-0.00000019,0.,0.00000013,0.0000
 0063,0.00000009,0.00000036,0.00000093,-0.00000091,0.00000848,0.0000033
 1,0.00000158,0.00002002,0.00001161,0.00002922,-0.00035549,-0.00022723,
 -0.00036759,-0.00003733,-0.00002760,-0.00040305,0.00045284,0.00001652,
 0.00000404,-0.00011391,0.00011861,0.00001098,0.00016231,-0.00003876,0.
 00002432,-0.00006140,0.00000327,0.00000782,0.00002511,-0.00000851,0.00
 002524,-0.00010731,-0.00000523,-0.00000310,0.00007209,0.00000950,-0.00
 000375,-0.00008031,0.00003275,-0.00007077,0.00000470,-0.00001269,0.000
 01741,-0.00000129,-0.00000048,-0.00000026,0.00010115,-0.00001821,0.000
 06142,-0.00006533,0.00002064,-0.00006262,-0.00001674,-0.00001123,0.000
 02724,0.00000152,0.00000881,-0.00002225,0.00009817,0.00000480,0.000000
 16,-0.00003950,-0.00000913,0.00001851,-0.00003119,0.00000766,-0.000024
 02,0.00000866,-0.00000267,0.00000806,0.00000227,-0.00000024,0.00000060
 ,-0.00000741,-0.00000062,-0.00000014,0.00000772,0.00000221,-0.00000440
 ,0.00018064,-0.00124641,0.00037402,0.00026101,-0.00003935,0.00001635,0
 .00010653,0.00004937,0.00011079,0.00012863,0.00022151,0.00065102,-0.12
 691463,0.01594527,-0.15598134,-0.01575934,0.00284921,-0.01327219,0.140
 22935,-0.02065315,0.16807535,-0.00180263,0.00048982,0.00054610,0.00069
 239,-0.00016380,-0.00068129,-0.00019160,0.00012437,0.00015456,-0.00017
 272,-0.00024972,-0.00015568,-0.00002621,0.00003396,0.00028410,0.000152
 73,-0.00009522,-0.00009014,0.00020599,-0.00001179,0.00001226,0.0012169
 4,-0.00050842,0.00021745,0.00012625,0.00014985,0.00001148,0.00005242,-
 0.00000183,-0.00002083,0.00001017,0.00000556,-0.00003201,-0.00001393,-
 0.00001042,0.00004673,0.00004977,-0.00000194,-0.00000300,-0.00002211,-
 0.00000030,-0.00001167,-0.00004614,0.00000320,0.00000476,0.00002606,0.
 00000284,-0.00000928,-0.00002863,-0.00001126,0.00001293,-0.00000555,0.
 00000246,0.00001928,-0.00002751,0.00000221,-0.00000112,0.00001426,0.00
 000229,-0.00001735,-0.00002694,-0.00001654,-0.00001949,0.00007662,-0.0
 0000426,-0.00000005,-0.00002920,0.00002048,0.00001861,0.00001493,-0.00
 000488,0.00002122,0.00000374,-0.00000019,0.00000313,-0.00000219,0.0000
 0092,-0.00000301,-0.00008040,-0.00000001,-0.00000406,0.00001563,0.0000
 2082,0.00003047,-0.00000504,-0.00000394,-0.00000320,0.00000021,-0.0000
 0203,0.00000058,-0.00000128,0.00000226,0.00000068,0.00000113,0.0000036
 6,0.00000101,-0.00000200,-0.00001064,-0.00000386,0.00000067,0.00000298
 ,-0.00000205,0.00000049,-0.00000137,0.00000039,0.00000202,0.00000215,0
 .00000050,-0.00000103,0.00000211,-0.00000005,-0.00000576,-0.00000158,-
 0.00000114,0.00000721,0.00001027,0.00000890,-0.00000031,-0.00000334,-0
 .00000331,0.00000530,-0.00000070,0.00000145,-0.00000531,-0.00000115,-0
 .00000031,0.00000376,0.00000080,-0.00000031,-0.00000082,-0.00000113,-0
 .00000018,0.00000021,0.00000051,0.00000026,-0.00000045,0.00000068,-0.0
 0000087,-0.00000073,0.,0.00000003,-0.00001157,-0.00001172,-0.00001068,
 0.00000799,0.00000048,0.00000165,-0.00000051,-0.00000088,-0.00000060,-
 0.00000099,0.00000091,0.00000029,-0.00000094,0.00000055,0.00000039,0.0
 0000026,-0.00000083,-0.00000016,-0.00000043,0.00000110,0.00000109,-0.0
 0000053,0.00000040,-0.00000091,0.00000090,0.,0.00000063,0.00001054,-0.
 00001647,-0.00002656,-0.00000328,0.00000395,0.00000086,-0.00000047,0.0
 0000337,-0.00000090,0.00000059,-0.00000386,-0.00000043,-0.00000050,-0.
 00000250,-0.00000086,-0.00000153,0.00000809,0.00000304,0.00000088,-0.0
 0000273,0.00000258,0.00000085,0.00000090,0.00000021,0.00000041,-0.0000
 0032,-0.00000230,0.00000177,0.00000104,-0.00000208,-0.00000218,0.00000
 276,0.00000014,0.00000689,-0.00000968,-0.00000705,-0.00000262,0.000002
 00,0.00000593,-0.00000060,-0.00000432,0.00000132,0.00000082,-0.0000011
 9,0.00000047,0.00000005,0.00000089,-0.00000004,-0.00000874,0.00001174,
 0.00000933,0.00000294,-0.00000044,-0.00000630,-0.00000014,-0.00000088,
 0.00000082,-0.00000047,0.00000090,0.00000040,-0.00000005,-0.00000063,0
 .00000075,0.00000008,-0.00000002,0.00000066,-0.00000215,-0.00000027,0.
 00000486,0.00000234,0.00000038,-0.00000523,-0.00000134,0.00000033,0.00
 000038,0.00000020,0.00000028,0.00000061,0.00000050,0.00000006,-0.00000
 025,-0.00000082,-0.00000036,0.00000095,0.00000112,-0.00000018,0.000000
 13,-0.00000169,-0.00000062,0.00000283,0.00000500,-0.00000237,-0.000002
 44,-0.00000318,0.00000257,-0.00000450,0.00001876,0.00000451,0.00001891
 ,0.00000188,0.00004549,-0.00000336,0.00035671,-0.00002554,0.00009333,-
 0.00003192,-0.00009594,0.00019956,0.00006463,0.00003275,-0.00011402,-0
 .00023385,0.00003456,-0.00005940,0.00010828,-0.00000170,0.00000590,-0.
 00006187,0.00000637,-0.00004415,0.00014965,0.00000002,0.00002405,-0.00
 007312,-0.00000713,-0.00000485,0.00007727,-0.00001752,0.00007084,-0.00
 000226,0.00000684,-0.00000512,0.00000173,-0.00000039,0.00000054,-0.000
 12795,0.00002165,-0.00007014,0.00008068,-0.00002577,0.00007761,0.00002
 243,0.00001479,-0.00003513,-0.00000596,-0.00001045,0.00002515,-0.00011
 257,-0.00001040,0.00001276,0.00004614,0.00001350,-0.00002984,0.0000314
 2,-0.00000632,0.00001985,-0.00000836,0.00000265,-0.00000727,-0.0000014
 4,-0.00000017,0.00000008,0.00001024,0.00000133,0.00000136,-0.00000128,
 0.00000362,-0.00000461,0.00003245,0.00034844,-0.00015134,0.00027463,-0
 .00002194,-0.00020276,0.00040887,-0.00045097,-0.00029438,-0.00002263,-
 0.00003038,0.00009969,-0.24194630,-0.01147953,0.11175204,-0.00030693,0
 .00046486,-0.00049887,-0.02021891,-0.00097844,0.01250057,0.26128980,-0
 .02539434,-0.00369750,0.01483104,-0.00033203,0.00094428,-0.00122470,-0
 .00074452,-0.00014203,0.00000445,-0.00059757,0.00016051,0.00058625,-0.
 00042066,0.00032108,0.00049741,-0.00008699,0.00002056,0.00029979,0.000
 17054,0.00012242,0.00018481,0.00098597,-0.00457976,0.00195933,-0.00008
 280,-0.00010422,-0.00009144,0.00010011,0.00002031,0.00001489,-0.000034
 92,0.00000214,-0.00000672,0.00000533,0.00000265,-0.00000248,0.00000833
 ,-0.00000207,0.00000474,0.00000601,-0.00000521,0.00000721,-0.00004389,
 0.00000616,0.00000168,0.00002136,0.00000302,-0.00003009,-0.00005677,-0
 .00001577,0.00001253,-0.00002209,-0.00002471,0.00005222,-0.00000354,0.
 00000107,-0.00000362,0.00000280,0.00000200,-0.00000431,-0.00000769,-0.
 00000522,-0.00000671,0.00002185,-0.00000146,0.00000018,-0.00000922,0.0
 0000693,0.00000475,0.00000248,-0.00000018,0.00000762,0.00000145,-0.000
 00102,0.00000090,-0.00000135,0.00000002,-0.00000081,-0.00002461,-0.000
 00016,-0.00000171,0.00000480,0.00000635,0.00000948,-0.00000136,-0.0000
 0120,-0.00000112,0.00000005,-0.00000055,0.00000001,-0.00000054,0.00000
 044,-0.00000002,0.00000051,0.00000124,0.00000019,-0.00000039,-0.000003
 30,-0.00000133,0.00000014,0.00000093,-0.00000041,-0.00000002,-0.000000
 48,0.00000024,0.00000096,0.00000066,0.00000017,-0.00000061,0.00000067,
 -0.00000007,-0.00000135,-0.00000035,-0.00000030,0.00000141,0.00000222,
 0.00000196,0.00000007,-0.00000079,-0.00000087,0.00000069,0.00000014,0.
 00000060,-0.00000073,-0.00000068,-0.00000079,0.00000075,0.00000014,0.0
 0000047,-0.00000019,-0.00000018,-0.00000008,0.00000009,0.00000004,0.00
 000001,-0.00000012,0.00000019,-0.00000024,-0.00000014,-0.00000004,0.00
 000002,-0.00000217,-0.00000268,-0.00000248,0.00000135,0.00000009,0.000
 00039,-0.00000015,-0.00000018,-0.00000011,-0.00000021,0.00000017,0.000
 00008,-0.00000017,0.00000013,0.,-0.00000004,-0.00000036,-0.00000007,-0
 .00000002,0.00000032,0.00000045,-0.00000027,0.00000007,-0.00000018,0.0
 0000010,0.00000002,0.00000031,0.00000325,-0.00000508,-0.00000817,-0.00
 000084,0.00000134,0.00000026,-0.00000002,0.00000083,-0.00000036,-0.000
 00014,-0.00000055,0.00000020,0.00000003,-0.00000095,-0.00000035,-0.000
 00103,0.00000234,0.00000122,0.00000030,-0.00000100,0.00000066,-0.00000
 001,0.00000047,0.00000020,0.00000024,-0.00000010,-0.00000067,0.0000003
 6,-0.00000001,-0.00000014,-0.00000039,0.00000058,-0.00000003,0.0000011
 4,-0.00000168,-0.00000114,-0.00000041,0.00000054,0.00000110,-0.0000001
 5,-0.00000091,0.00000051,0.00000010,-0.00000031,0.00000001,-0.00000009
 ,0.00000022,0.00000002,-0.00000149,0.00000215,0.00000153,0.00000043,-0
 .00000006,-0.00000100,0.,-0.00000013,0.00000014,-0.00000008,0.00000014
 ,0.00000008,-0.00000002,-0.00000012,0.00000014,-0.00000001,0.,0.000000
 11,-0.00000043,0.00000026,0.00000061,0.00000039,-0.00000002,-0.0000008
 2,-0.00000024,0.00000007,0.00000006,0.00000004,0.00000004,0.00000012,0
 .00000011,0.00000005,-0.00000006,-0.00000016,-0.00000001,0.00000025,0.
 00000036,-0.00000001,0.00000005,-0.00000068,-0.00000041,0.00000089,0.0
 0000245,-0.00000252,-0.00000087,-0.00000734,0.00000010,-0.00000266,0.0
 0000401,-0.00000691,-0.00000106,-0.00001206,-0.00004134,-0.00014698,0.
 00031295,0.00000435,0.00004968,-0.00005363,-0.00004138,0.00009096,0.00
 026328,-0.00005204,0.00010036,-0.00007406,0.00001338,-0.00004029,0.000
 03876,-0.00001798,0.00000117,-0.00002328,0.00000425,-0.00002367,0.0000
 4037,-0.00000256,0.00001282,-0.00001771,0.00000140,-0.00000266,0.00001
 373,-0.00000197,0.00002264,0.00000074,0.00000018,0.00000174,0.00000002
 ,-0.00000007,0.00000033,-0.00003330,0.00000594,-0.00001972,0.00001960,
 -0.00000819,0.00002189,0.00000711,0.00000553,-0.00001095,-0.00000341,-
 0.00000419,0.00000723,-0.00002427,0.00000015,0.00000088,0.00000867,0.0
 0000049,-0.00000566,0.00000711,-0.00000303,0.00000588,-0.00000137,0.00
 000160,-0.00000160,-0.00000064,0.00000119,0.00000028,-0.00000027,0.000
 00372,0.00000123,0.00000692,0.00002127,0.00000064,-0.00095180,0.001942
 47,0.00045301,0.00034954,0.00032057,-0.00003055,0.00049189,-0.00041352
 ,-0.00038482,0.00001144,-0.00016110,-0.00011994,-0.01042094,-0.0472645
 6,0.00522638,0.02167791,0.00209424,-0.01079087,0.00250031,-0.00075107,
 -0.00208426,0.01240103,0.05131704,0.01280579,0.00158208,-0.00926306,0.
 00078243,-0.00068730,0.00083093,0.00087961,0.00001315,-0.00012770,0.00
 009267,0.00016505,-0.00002359,0.00039612,-0.00025794,-0.00028439,0.000
 13397,-0.00006620,-0.00039198,-0.00044282,0.00004490,-0.00008437,-0.00
 068836,0.00317199,-0.00030020,0.00014024,0.00014589,0.00004167,-0.0001
 5244,-0.00001723,-0.00001099,0.00003290,-0.00000243,0.00001971,-0.0000
 0919,-0.00000119,-0.00000175,-0.00001434,0.00000201,-0.00000456,-0.000
 00598,0.00000537,-0.00001009,0.00004796,-0.00000573,0.00000078,-0.0000
 2309,-0.00000488,0.00002668,0.00005456,0.00001070,-0.00000449,0.000020
 59,0.00002075,-0.00006371,0.00000471,-0.00000168,0.00000354,-0.0000046
 7,-0.00000194,0.00000520,0.00001211,0.00000810,0.00000988,-0.00003824,
 0.00000204,0.00000012,0.00001402,-0.00000998,-0.00000818,-0.00000469,0
 .00000129,-0.00000857,-0.00000177,0.00000066,-0.00000175,0.00000119,-0
 .00000019,0.00000153,0.00004082,-0.00000113,0.00000135,-0.00000713,-0.
 00000979,-0.00001514,0.00000250,0.00000191,0.00000147,0.,0.00000092,-0
 .00000027,0.00000074,-0.00000116,-0.00000026,-0.00000060,-0.00000180,-
 0.00000071,0.00000080,0.00000536,0.00000173,-0.00000040,-0.00000146,0.
 00000112,-0.00000035,0.00000055,-0.00000013,-0.00000064,-0.00000111,-0
 .00000026,0.00000028,-0.00000085,0.00000003,0.00000280,0.00000080,0.00
 000051,-0.00000369,-0.00000507,-0.00000436,0.00000028,0.00000159,0.000
 00149,-0.00000317,0.00000081,-0.00000036,0.00000319,0.00000009,-0.0000
 0062,-0.00000205,-0.00000042,0.00000074,0.00000041,0.00000064,0.000000
 06,-0.00000004,-0.00000033,-0.00000018,0.00000019,-0.00000030,0.000000
 40,0.00000038,-0.00000002,0.00000003,0.00000607,0.00000575,0.00000514,
 -0.00000433,-0.00000026,-0.00000073,0.00000022,0.00000042,0.00000033,0
 .00000050,-0.00000046,-0.00000012,0.00000051,-0.00000027,-0.00000030,-
 0.00000019,0.00000028,0.00000007,0.00000027,-0.00000048,-0.00000042,0.
 00000022,-0.00000018,0.00000050,-0.00000043,-0.00000006,-0.00000019,-0
 .00000615,0.00000972,0.00001434,0.00000221,-0.00000214,-0.00000055,0.0
 0000011,-0.00000158,0.00000051,-0.00000038,0.00000199,0.00000023,0.000
 00022,0.00000146,0.00000054,0.00000070,-0.00000459,-0.00000190,-0.0000
 0040,0.00000158,-0.00000133,-0.00000039,-0.00000056,-0.00000007,-0.000
 00033,0.00000021,0.00000131,-0.00000092,-0.00000049,0.00000114,0.00000
 111,-0.00000159,-0.00000014,-0.00000382,0.00000546,0.00000400,0.000001
 37,-0.00000118,-0.00000334,0.00000024,0.00000232,-0.00000070,-0.000000
 36,0.00000068,-0.00000025,0.00000004,-0.00000045,0.00000006,0.00000480
 ,-0.00000662,-0.00000534,-0.00000152,0.00000028,0.00000366,0.00000005,
 0.00000045,-0.00000046,0.00000030,-0.00000049,-0.00000020,-0.00000003,
 0.00000039,-0.00000046,0.00000002,0.00000005,-0.00000035,0.00000111,0.
 00000006,-0.00000280,-0.00000120,-0.00000009,0.00000303,0.00000071,-0.
 00000018,-0.00000021,-0.00000014,-0.00000023,-0.00000037,-0.00000025,-
 0.00000002,0.00000017,0.00000043,0.00000023,-0.00000046,-0.00000065,0.
 00000002,0.00000001,0.00000080,0.00000034,-0.00000157,-0.00000343,0.00
 000245,0.00000167,0.00000566,-0.00000038,0.00000294,-0.00000339,0.0000
 0416,-0.00000475,-0.00005614,0.00003975,0.00025788,-0.00049710,-0.0000
 8227,-0.00037533,0.00020498,-0.00009915,-0.00000590,-0.00035448,0.0003
 0089,0.00003902,0.00016918,-0.00000675,0.00008401,-0.00007981,0.000019
 58,-0.00005759,0.00003017,-0.00002109,0.00004676,-0.00006168,0.0000035
 5,-0.00001345,0.00004349,-0.00000768,0.00001178,-0.00003245,0.00000768
 ,-0.00004671,-0.00000233,0.00000145,0.00000505,0.00000050,0.00000132,0
 .00000085,0.00003028,-0.00000682,0.00002392,-0.00001063,0.00000678,-0.
 00002098,-0.00000642,-0.00000293,0.00000932,0.00000458,0.00000073,-0.0
 0000391,0.00000560,0.00000648,-0.00001315,-0.00000186,-0.00000534,0.00
 000976,0.00000294,-0.00000269,0.00000536,-0.00000117,0.00000110,-0.000
 00109,-0.00000153,0.00000105,-0.00000086,-0.00000543,0.00000296,-0.000
 00221,-0.00002767,0.00000573,0.00002212,-0.00031436,-0.00120404,0.0002
 9952,-0.00021818,-0.00002932,-0.00007061,-0.00016576,0.00015342,0.0005
 7515,-0.00012904,0.00005269,0.00011021,0.11145042,0.00567477,-0.111171
 13,0.01819293,0.00196320,-0.01031874,-0.01855731,-0.00146804,0.0117345
 7,-0.12367868,-0.00942950,0.11851644\\-0.00000056,-0.00000086,-0.00000
 107,-0.00000166,-0.00000028,0.00000074,0.00000100,-0.00000021,0.000000
 38,0.00000093,-0.00000045,-0.00000451,-0.00000158,-0.00000171,-0.00000
 105,0.00000002,0.00000042,0.00000668,0.00000089,0.00000066,-0.00000485
 ,-0.00000035,-0.00000123,0.00000363,0.00000044,-0.00000059,0.00000090,
 0.00000430,0.00000067,-0.00000221,-0.00000329,-0.00000009,0.00000010,0
 .00000255,0.00000060,-0.00000043,-0.00000073,-0.00000087,0.00000007,0.
 00000019,-0.00000370,-0.00000324,0.00000264,0.00000293,0.00000133,0.00
 000049,-0.00000160,0.00000327,-0.00000433,-0.00000162,0.00000314,-0.00
 000151,0.00000393,-0.00000370,0.00000138,0.00000086,0.00000105,0.00000
 047,-0.00000083,-0.00000101,-0.00000019,0.00000047,-0.00000010,-0.0000
 0524,0.00000126,0.00000155,0.00000087,-0.00000159,-0.00000024,-0.00000
 107,-0.00000013,-0.00000023,-0.00000035,-0.00000011,-0.00000006,0.0000
 0006,-0.00000020,-0.00000016,0.00000732,-0.00000233,-0.00000234,-0.000
 00172,0.00000071,-0.00000060,0.00000041,0.00000032,-0.00000004,-0.0000
 0009,-0.00000009,-0.00000017,-0.00000013,0.00000037,0.00000032,0.00000
 005,-0.00000031,-0.00000013,0.00000017,0.00000038,-0.00000021,0.000000
 31,0.00000005,0.,-0.00000004,0.00000004,-0.00000013,0.,0.,-0.00000024,
 0.00000004,0.00000003,-0.00000013,0.00000010,0.00000008,0.00000011,-0.
 00000015,-0.00000031,0.00000023,0.00000003,0.00000001,-0.00000004,-0.0
 0000003,0.00000006,-0.00000001,0.00000016,0.00000021,0.00000010,-0.000
 00017,-0.00000001,-0.00000017,-0.00000005,0.00000002,-0.00000002,0.000
 00006,0.00000005,0.00000002,0.00000004,-0.00000004,-0.00000006,-0.0000
 0004,0.00000007,-0.00000010,0.00000017,0.00000063,-0.00000063,-0.00000
 018,-0.00000020,0.00000026,0.,0.00000008,-0.00000005,-0.00000001,0.000
 00006,-0.00000017,0.00000004,0.00000019,-0.00000006,-0.00000005,0.0000
 0007,-0.00000007,-0.00000003,0.00000009,-0.00000004,0.00000003,0.00000
 006,-0.00000001,0.00000008,0.00000009,-0.00000002,-0.00000312,0.000002
 20,0.00000301,0.00000119,-0.00000037,0.00000002,-0.00000043,-0.0000000
 6,0.00000030,0.00000029,-0.00000036,-0.00000009,-0.00000013,0.00000071
 ,0.00000010,-0.00000046,-0.00000073,-0.00000091,0.00000017,-0.00000018
 ,0.00000006,-0.00000005,-0.00000006,0.00000010,0.00000006,0.00000015,-
 0.00000006,0.00000025,-0.00000028,0.00000033,0.00000006,-0.00000015,0.
 00000006,-0.00000027,0.00000008,0.00000023,0.00000007,-0.00000015,-0.0
 0000013,0.00000008,0.00000005,0.00000012,-0.00000004,0.00000001,0.0000
 0013,0.,-0.00000006,0.00000013,0.00000035,-0.00000016,0.00000003,-0.00
 000018,-0.00000008,0.00000025,0.00000004,-0.00000008,0.00000008,0.0000
 0002,-0.00000008,0.00000011,0.00000003,-0.00000006,0.00000010,-0.00000
 001,-0.00000013,0.00000017,-0.00000068,0.00000007,-0.00000019,0.000000
 33,0.00000017,0.00000041,-0.00000003,-0.00000016,0.,-0.00000006,-0.000
 00004,0.,0.00000006,-0.00000007,0.00000005,0.00000011,0.00000010,-0.00
 000006,0.00000011,-0.00000020,-0.00000012,0.00000044,-0.00000010,0.000
 00022,0.00000011,0.00000019,0.00000056,0.00000026,0.00000017,-0.000000
 06,-0.00000078,0.00000056,-0.00000030,-0.00000043,0.00000477,0.0000009
 8,-0.00000124,-0.00000556,-0.00000248,0.00000151,0.00000510,0.00000167
 ,0.00000002,0.00000035,-0.00000003,0.00000137,-0.00000242,-0.00000034,
 -0.00000097,0.00000039,0.00000010,0.00000059,0.00000003,0.00000055,-0.
 00000064,0.00000017,-0.00000046,0.00000022,-0.00000025,0.00000027,-0.0
 0000013,0.00000033,-0.00000015,0.00000004,0.00000003,0.00000019,-0.000
 00011,-0.00000006,-0.00000028,0.00000052,0.00000003,0.00000033,0.00000
 022,0.00000087,0.00000008,-0.00000007,-0.00000047,-0.00000022,0.000000
 16,0.00000019,0.00000003,-0.00000009,-0.00000226,-0.00000069,-0.000000
 07,0.00000089,0.00000033,-0.00000019,0.00000040,0.00000018,0.00000014,
 0.00000005,-0.00000011,-0.00000010,-0.00000017,-0.00000011,-0.00000003
 ,-0.00000008,0.,-0.00000018,0.00000017,-0.00000007,0.00000039,0.000000
 12,-0.00000040,-0.00000006,0.00000002,0.00000001,-0.00000010,0.,-0.000
 00002,0.00000008,0.00000002,-0.00000002,-0.00000017,0.00000032,0.00000
 015,-0.00000004,-0.00000009,-0.00000010,-0.00000004,0.00000006,0.00000
 023,0.,0.00000001,0.00000016\\\@


 E PUR SI MUOVE    -- GALILEO GALILEI
 Job cpu time:       1 days  1 hours  6 minutes 40.2 seconds.
 Elapsed time:       1 days  1 hours  7 minutes 55.4 seconds.
 File lengths (MBytes):  RWF=  28329 Int=      0 D2E=      0 Chk=    215 Scr=      1
 Normal termination of Gaussian 16 at Sat Jun  5 04:54:48 2021.
