 Entering Gaussian System, Link 0=/usr/local/apps//g09/g09
 Input=mex.com
 Output=mex.out
 Initial command:
 /usr/local/apps//g09/l1.exe "/tmp/bnp.467426.sequoia/Gau-25999.inp" -scrdir="/tmp/bnp.467426.sequoia/"
 Entering Link 1 = /usr/local/apps//g09/l1.exe PID=     26000.
  
 Copyright (c) 1988,1990,1992,1993,1995,1998,2003,2009,2013,
            Gaussian, Inc.  All Rights Reserved.
  
 This is part of the Gaussian(R) 09 program.  It is based on
 the Gaussian(R) 03 system (copyright 2003, Gaussian, Inc.),
 the Gaussian(R) 98 system (copyright 1998, Gaussian, Inc.),
 the Gaussian(R) 94 system (copyright 1995, Gaussian, Inc.),
 the Gaussian 92(TM) system (copyright 1992, Gaussian, Inc.),
 the Gaussian 90(TM) system (copyright 1990, Gaussian, Inc.),
 the Gaussian 88(TM) system (copyright 1988, Gaussian, Inc.),
 the Gaussian 86(TM) system (copyright 1986, Carnegie Mellon
 University), and the Gaussian 82(TM) system (copyright 1983,
 Carnegie Mellon University). Gaussian is a federally registered
 trademark of Gaussian, Inc.
  
 This software contains proprietary and confidential information,
 including trade secrets, belonging to Gaussian, Inc.
  
 This software is provided under written license and may be
 used, copied, transmitted, or stored only in accord with that
 written license.
  
 The following legend is applicable only to US Government
 contracts under FAR:
  
                    RESTRICTED RIGHTS LEGEND
  
 Use, reproduction and disclosure by the US Government is
 subject to restrictions as set forth in subparagraphs (a)
 and (c) of the Commercial Computer Software - Restricted
 Rights clause in FAR 52.227-19.
  
 Gaussian, Inc.
 340 Quinnipiac St., Bldg. 40, Wallingford CT 06492
  
  
 ---------------------------------------------------------------
 Warning -- This program may not be used in any manner that
 competes with the business of Gaussian, Inc. or will provide
 assistance to any competitor of Gaussian, Inc.  The licensee
 of this program is prohibited from giving any competitor of
 Gaussian, Inc. access to this program.  By using this program,
 the user acknowledges that Gaussian, Inc. is engaged in the
 business of creating and licensing software in the field of
 computational chemistry and represents and warrants to the
 licensee that it is not a competitor of Gaussian, Inc. and that
 it will not use this program in any manner prohibited above.
 ---------------------------------------------------------------
  

 Cite this work as:
 Gaussian 09, Revision D.01,
 M. J. Frisch, G. W. Trucks, H. B. Schlegel, G. E. Scuseria, 
 M. A. Robb, J. R. Cheeseman, G. Scalmani, V. Barone, B. Mennucci, 
 G. A. Petersson, H. Nakatsuji, M. Caricato, X. Li, H. P. Hratchian, 
 A. F. Izmaylov, J. Bloino, G. Zheng, J. L. Sonnenberg, M. Hada, 
 M. Ehara, K. Toyota, R. Fukuda, J. Hasegawa, M. Ishida, T. Nakajima, 
 Y. Honda, O. Kitao, H. Nakai, T. Vreven, J. A. Montgomery, Jr., 
 J. E. Peralta, F. Ogliaro, M. Bearpark, J. J. Heyd, E. Brothers, 
 K. N. Kudin, V. N. Staroverov, T. Keith, R. Kobayashi, J. Normand, 
 K. Raghavachari, A. Rendell, J. C. Burant, S. S. Iyengar, J. Tomasi, 
 M. Cossi, N. Rega, J. M. Millam, M. Klene, J. E. Knox, J. B. Cross, 
 V. Bakken, C. Adamo, J. Jaramillo, R. Gomperts, R. E. Stratmann, 
 O. Yazyev, A. J. Austin, R. Cammi, C. Pomelli, J. W. Ochterski, 
 R. L. Martin, K. Morokuma, V. G. Zakrzewski, G. A. Voth, 
 P. Salvador, J. J. Dannenberg, S. Dapprich, A. D. Daniels, 
 O. Farkas, J. B. Foresman, J. V. Ortiz, J. Cioslowski, 
 and D. J. Fox, Gaussian, Inc., Wallingford CT, 2013.
 
 ******************************************
 Gaussian 09:  ES64L-G09RevD.01 24-Apr-2013
                19-May-2021 
 ******************************************
 ---------------
 #N HF/6-31G OPT
 ---------------
 1/18=20,19=15,38=1/1,3;
 2/9=110,12=2,17=6,18=5,40=1/2;
 3/5=1,6=6,11=9,16=1,25=1,30=1,71=1/1,2,3;
 4//1;
 5/5=2,38=5/2;
 6/7=2,8=2,9=2,10=2,28=1/1;
 7//1,2,3,16;
 1/18=20,19=15/3(2);
 2/9=110/2;
 99//99;
 2/9=110/2;
 3/5=1,6=6,11=9,16=1,25=1,30=1,71=1/1,2,3;
 4/5=5,16=3,69=1/1;
 5/5=2,38=5/2;
 7//1,2,3,16;
 1/18=20,19=15/3(-5);
 2/9=110/2;
 6/7=2,8=2,9=2,10=2,19=2,28=1/1;
 99/9=1/99;
 ------------------------------------------------------------
 triphenylamine::thienopyrazine::2-cyano-2-phenylacrylic acid
 ------------------------------------------------------------
 Symbolic Z-matrix:
 Charge =  0 Multiplicity = 1
 C                     0.76942   2.21422  -3.99629 
 C                     0.85484   0.85052  -3.74546 
 C                     1.37301   0.38832  -2.52719 
 C                     1.88619   1.26714  -1.55186 
 N                     2.53292   0.77016  -0.33854 
 C                     2.13816   1.36346   0.92647 
 C                     2.51702   2.66867   1.28013 
 C                     2.10315   3.24216   2.48767 
 C                     1.37184   2.49039   3.40268 
 C                     1.0276    1.17629   3.09782 
 C                     1.37661   0.63073   1.85736 
 C                     3.37009  -0.43081  -0.34177 
 C                     3.79007  -1.06571   0.83876 
 C                     4.48495  -2.29478   0.83401 
 C                     4.84025  -2.94672  -0.35187 
 C                     4.53736  -2.25188  -1.53161 
 C                     3.85132  -1.01822  -1.52219 
 C                     1.72672   2.64091  -1.81602 
 C                     1.17889   3.11004  -3.01867 
 C                     6.99202  -6.87706   2.38892 
 C                     6.45166  -5.66655   2.81933 
 N                     5.91885  -4.71843   2.008 
 C                     5.97395  -5.07925   0.68957 
 C                     5.50384  -4.2868   -0.3483 
 S                     5.77349  -5.12446  -1.84345 
 C                     6.50233  -6.50944  -1.12538 
 C                     6.54034  -6.34335   0.2451 
 N                     7.05948  -7.27947   1.09667 
 N                     11.79942  -10.23253  -3.67637 
 C                     10.86182  -10.71071  -4.15863 
 C                     9.69211  -11.29802  -4.72014 
 C                     8.43918  -10.8644  -4.46311 
 C                     8.00106  -9.7494   -3.59899 
 C                     8.58115  -9.45247  -2.36442 
 C                     8.09774  -8.39381  -1.57873 
 C                     6.99756  -7.61939  -1.97649 
 C                     6.39622  -7.95118  -3.20022 
 C                     6.89118  -8.99499  -3.99863 
 C                     9.92366  -12.43366  -5.64386 
 O                     11.00588  -12.92821  -5.91064 
 O                     8.80588  -12.91887  -6.21669 
 H                     0.37357   2.57787  -4.94065 
 H                     0.51996   0.13977  -4.49666 
 H                     1.37393  -0.68475  -2.35461 
 H                     3.15303   3.25452   0.62382 
 H                     2.36699   4.27161   2.71783 
 H                     1.07854   2.92559   4.35451 
 H                     0.48621   0.574     3.82333 
 H                     1.07809  -0.38968   1.62914 
 H                     3.58615  -0.63672   1.81529 
 H                     4.72346  -2.72153   1.80417 
 H                     4.81834  -2.6432   -2.50617 
 H                     3.70654  -0.53806  -2.48571 
 H                     2.04421   3.39876  -1.11415 
 H                     1.0893    4.18043  -3.18855 
 H                     7.4028   -7.5794    3.10885 
 H                     6.4372   -5.42313   3.87797 
 H                     7.60213  -11.36002  -4.95726 
 H                     9.41353  -10.03086  -1.97043 
 H                     8.60624  -8.19031  -0.63813 
 H                     5.52284  -7.41006  -3.55778 
 H                     6.38879  -9.20693  -4.94076 
 H                     9.13714  -13.64609  -6.78629 
 

 GradGradGradGradGradGradGradGradGradGradGradGradGradGradGradGradGradGrad
 Berny optimization.
 Initialization pass.
                           ----------------------------
                           !    Initial Parameters    !
                           ! (Angstroms and Degrees)  !
 --------------------------                            --------------------------
 ! Name  Definition              Value          Derivative Info.                !
 --------------------------------------------------------------------------------
 ! R1    R(1,2)                  1.3892         estimate D2E/DX2                !
 ! R2    R(1,19)                 1.3878         estimate D2E/DX2                !
 ! R3    R(1,42)                 1.0866         estimate D2E/DX2                !
 ! R4    R(2,3)                  1.4023         estimate D2E/DX2                !
 ! R5    R(2,43)                 1.087          estimate D2E/DX2                !
 ! R6    R(3,4)                  1.4096         estimate D2E/DX2                !
 ! R7    R(3,44)                 1.0869         estimate D2E/DX2                !
 ! R8    R(4,5)                  1.462          estimate D2E/DX2                !
 ! R9    R(4,18)                 1.408          estimate D2E/DX2                !
 ! R10   R(5,6)                  1.4519         estimate D2E/DX2                !
 ! R11   R(5,12)                 1.464          estimate D2E/DX2                !
 ! R12   R(6,7)                  1.4043         estimate D2E/DX2                !
 ! R13   R(6,11)                 1.4083         estimate D2E/DX2                !
 ! R14   R(7,8)                  1.3994         estimate D2E/DX2                !
 ! R15   R(7,45)                 1.0856         estimate D2E/DX2                !
 ! R16   R(8,9)                  1.3918         estimate D2E/DX2                !
 ! R17   R(8,46)                 1.0874         estimate D2E/DX2                !
 ! R18   R(9,10)                 1.3922         estimate D2E/DX2                !
 ! R19   R(9,47)                 1.0869         estimate D2E/DX2                !
 ! R20   R(10,11)                1.3994         estimate D2E/DX2                !
 ! R21   R(10,48)                1.0873         estimate D2E/DX2                !
 ! R22   R(11,49)                1.0874         estimate D2E/DX2                !
 ! R23   R(12,13)                1.4047         estimate D2E/DX2                !
 ! R24   R(12,17)                1.4036         estimate D2E/DX2                !
 ! R25   R(13,14)                1.4119         estimate D2E/DX2                !
 ! R26   R(13,50)                1.0859         estimate D2E/DX2                !
 ! R27   R(14,15)                1.3991         estimate D2E/DX2                !
 ! R28   R(14,51)                1.0864         estimate D2E/DX2                !
 ! R29   R(15,16)                1.4023         estimate D2E/DX2                !
 ! R30   R(15,24)                1.4954         estimate D2E/DX2                !
 ! R31   R(16,17)                1.4116         estimate D2E/DX2                !
 ! R32   R(16,52)                1.0871         estimate D2E/DX2                !
 ! R33   R(17,53)                1.0862         estimate D2E/DX2                !
 ! R34   R(18,19)                1.4023         estimate D2E/DX2                !
 ! R35   R(18,54)                1.0806         estimate D2E/DX2                !
 ! R36   R(19,55)                1.0875         estimate D2E/DX2                !
 ! R37   R(20,21)                1.3938         estimate D2E/DX2                !
 ! R38   R(20,28)                1.3551         estimate D2E/DX2                !
 ! R39   R(20,56)                1.0864         estimate D2E/DX2                !
 ! R40   R(21,22)                1.3569         estimate D2E/DX2                !
 ! R41   R(21,57)                1.0864         estimate D2E/DX2                !
 ! R42   R(22,23)                1.368          estimate D2E/DX2                !
 ! R43   R(23,24)                1.3879         estimate D2E/DX2                !
 ! R44   R(23,27)                1.4548         estimate D2E/DX2                !
 ! R45   R(24,25)                1.7349         estimate D2E/DX2                !
 ! R46   R(25,26)                1.7219         estimate D2E/DX2                !
 ! R47   R(26,27)                1.381          estimate D2E/DX2                !
 ! R48   R(26,36)                1.4838         estimate D2E/DX2                !
 ! R49   R(27,28)                1.3678         estimate D2E/DX2                !
 ! R50   R(29,30)                1.1577         estimate D2E/DX2                !
 ! R51   R(30,31)                1.4242         estimate D2E/DX2                !
 ! R52   R(31,32)                1.3505         estimate D2E/DX2                !
 ! R53   R(31,39)                1.4821         estimate D2E/DX2                !
 ! R54   R(32,33)                1.4771         estimate D2E/DX2                !
 ! R55   R(32,58)                1.0911         estimate D2E/DX2                !
 ! R56   R(33,34)                1.396          estimate D2E/DX2                !
 ! R57   R(33,38)                1.4002         estimate D2E/DX2                !
 ! R58   R(34,35)                1.4042         estimate D2E/DX2                !
 ! R59   R(34,59)                1.0875         estimate D2E/DX2                !
 ! R60   R(35,36)                1.403          estimate D2E/DX2                !
 ! R61   R(35,60)                1.0884         estimate D2E/DX2                !
 ! R62   R(36,37)                1.4033         estimate D2E/DX2                !
 ! R63   R(37,38)                1.4043         estimate D2E/DX2                !
 ! R64   R(37,61)                1.0879         estimate D2E/DX2                !
 ! R65   R(38,62)                1.0885         estimate D2E/DX2                !
 ! R66   R(39,40)                1.2194         estimate D2E/DX2                !
 ! R67   R(39,41)                1.3465         estimate D2E/DX2                !
 ! R68   R(41,63)                0.9813         estimate D2E/DX2                !
 ! A1    A(2,1,19)             119.2305         estimate D2E/DX2                !
 ! A2    A(2,1,42)             120.5196         estimate D2E/DX2                !
 ! A3    A(19,1,42)            120.2441         estimate D2E/DX2                !
 ! A4    A(1,2,3)              120.2086         estimate D2E/DX2                !
 ! A5    A(1,2,43)             119.8763         estimate D2E/DX2                !
 ! A6    A(3,2,43)             119.9151         estimate D2E/DX2                !
 ! A7    A(2,3,4)              122.0171         estimate D2E/DX2                !
 ! A8    A(2,3,44)             117.626          estimate D2E/DX2                !
 ! A9    A(4,3,44)             120.3559         estimate D2E/DX2                !
 ! A10   A(3,4,5)              121.5573         estimate D2E/DX2                !
 ! A11   A(3,4,18)             115.9288         estimate D2E/DX2                !
 ! A12   A(5,4,18)             122.5121         estimate D2E/DX2                !
 ! A13   A(4,5,6)              117.6386         estimate D2E/DX2                !
 ! A14   A(4,5,12)             122.0057         estimate D2E/DX2                !
 ! A15   A(6,5,12)             119.5131         estimate D2E/DX2                !
 ! A16   A(5,6,7)              121.7253         estimate D2E/DX2                !
 ! A17   A(5,6,11)             120.6846         estimate D2E/DX2                !
 ! A18   A(7,6,11)             117.5793         estimate D2E/DX2                !
 ! A19   A(6,7,8)              121.225          estimate D2E/DX2                !
 ! A20   A(6,7,45)             120.4892         estimate D2E/DX2                !
 ! A21   A(8,7,45)             118.2808         estimate D2E/DX2                !
 ! A22   A(7,8,9)              120.0874         estimate D2E/DX2                !
 ! A23   A(7,8,46)             119.9254         estimate D2E/DX2                !
 ! A24   A(9,8,46)             119.9801         estimate D2E/DX2                !
 ! A25   A(8,9,10)             119.7211         estimate D2E/DX2                !
 ! A26   A(8,9,47)             120.0807         estimate D2E/DX2                !
 ! A27   A(10,9,47)            120.1962         estimate D2E/DX2                !
 ! A28   A(9,10,11)            120.0284         estimate D2E/DX2                !
 ! A29   A(9,10,48)            119.9901         estimate D2E/DX2                !
 ! A30   A(11,10,48)           119.9815         estimate D2E/DX2                !
 ! A31   A(6,11,10)            121.1955         estimate D2E/DX2                !
 ! A32   A(6,11,49)            119.8646         estimate D2E/DX2                !
 ! A33   A(10,11,49)           118.9094         estimate D2E/DX2                !
 ! A34   A(5,12,13)            122.6776         estimate D2E/DX2                !
 ! A35   A(5,12,17)            122.7686         estimate D2E/DX2                !
 ! A36   A(13,12,17)           114.5277         estimate D2E/DX2                !
 ! A37   A(12,13,14)           122.5324         estimate D2E/DX2                !
 ! A38   A(12,13,50)           121.4035         estimate D2E/DX2                !
 ! A39   A(14,13,50)           116.0614         estimate D2E/DX2                !
 ! A40   A(13,14,15)           122.2388         estimate D2E/DX2                !
 ! A41   A(13,14,51)           116.5511         estimate D2E/DX2                !
 ! A42   A(15,14,51)           121.2063         estimate D2E/DX2                !
 ! A43   A(14,15,16)           115.2989         estimate D2E/DX2                !
 ! A44   A(14,15,24)           121.8861         estimate D2E/DX2                !
 ! A45   A(16,15,24)           122.814          estimate D2E/DX2                !
 ! A46   A(15,16,17)           122.1684         estimate D2E/DX2                !
 ! A47   A(15,16,52)           121.3327         estimate D2E/DX2                !
 ! A48   A(17,16,52)           116.4984         estimate D2E/DX2                !
 ! A49   A(12,17,16)           122.547          estimate D2E/DX2                !
 ! A50   A(12,17,53)           121.0179         estimate D2E/DX2                !
 ! A51   A(16,17,53)           116.4346         estimate D2E/DX2                !
 ! A52   A(4,18,19)            122.1098         estimate D2E/DX2                !
 ! A53   A(4,18,54)            121.9464         estimate D2E/DX2                !
 ! A54   A(19,18,54)           115.9239         estimate D2E/DX2                !
 ! A55   A(1,19,18)            120.2292         estimate D2E/DX2                !
 ! A56   A(1,19,55)            120.067          estimate D2E/DX2                !
 ! A57   A(18,19,55)           119.6979         estimate D2E/DX2                !
 ! A58   A(21,20,28)           124.8681         estimate D2E/DX2                !
 ! A59   A(21,20,56)           120.2267         estimate D2E/DX2                !
 ! A60   A(28,20,56)           114.905          estimate D2E/DX2                !
 ! A61   A(20,21,22)           125.0628         estimate D2E/DX2                !
 ! A62   A(20,21,57)           120.0463         estimate D2E/DX2                !
 ! A63   A(22,21,57)           114.8908         estimate D2E/DX2                !
 ! A64   A(21,22,23)           112.0956         estimate D2E/DX2                !
 ! A65   A(22,23,24)           123.8119         estimate D2E/DX2                !
 ! A66   A(22,23,27)           122.6375         estimate D2E/DX2                !
 ! A67   A(24,23,27)           113.5504         estimate D2E/DX2                !
 ! A68   A(15,24,23)           131.5893         estimate D2E/DX2                !
 ! A69   A(15,24,25)           119.9735         estimate D2E/DX2                !
 ! A70   A(23,24,25)           108.4297         estimate D2E/DX2                !
 ! A71   A(24,25,26)            95.4369         estimate D2E/DX2                !
 ! A72   A(25,26,27)           109.1929         estimate D2E/DX2                !
 ! A73   A(25,26,36)           120.248          estimate D2E/DX2                !
 ! A74   A(27,26,36)           130.5418         estimate D2E/DX2                !
 ! A75   A(23,27,26)           113.3898         estimate D2E/DX2                !
 ! A76   A(23,27,28)           123.5208         estimate D2E/DX2                !
 ! A77   A(26,27,28)           123.0894         estimate D2E/DX2                !
 ! A78   A(20,28,27)           111.8114         estimate D2E/DX2                !
 ! A79   A(30,31,32)           123.6765         estimate D2E/DX2                !
 ! A80   A(30,31,39)           115.6827         estimate D2E/DX2                !
 ! A81   A(32,31,39)           120.6361         estimate D2E/DX2                !
 ! A82   A(31,32,33)           128.9668         estimate D2E/DX2                !
 ! A83   A(31,32,58)           118.665          estimate D2E/DX2                !
 ! A84   A(33,32,58)           112.3513         estimate D2E/DX2                !
 ! A85   A(32,33,34)           123.6873         estimate D2E/DX2                !
 ! A86   A(32,33,38)           118.3479         estimate D2E/DX2                !
 ! A87   A(34,33,38)           117.851          estimate D2E/DX2                !
 ! A88   A(33,34,35)           120.8061         estimate D2E/DX2                !
 ! A89   A(33,34,59)           121.6905         estimate D2E/DX2                !
 ! A90   A(35,34,59)           117.5016         estimate D2E/DX2                !
 ! A91   A(34,35,36)           121.8357         estimate D2E/DX2                !
 ! A92   A(34,35,60)           117.6232         estimate D2E/DX2                !
 ! A93   A(36,35,60)           120.5409         estimate D2E/DX2                !
 ! A94   A(26,36,35)           120.7982         estimate D2E/DX2                !
 ! A95   A(26,36,37)           122.2798         estimate D2E/DX2                !
 ! A96   A(35,36,37)           116.9211         estimate D2E/DX2                !
 ! A97   A(36,37,38)           121.3668         estimate D2E/DX2                !
 ! A98   A(36,37,61)           120.8673         estimate D2E/DX2                !
 ! A99   A(38,37,61)           117.7642         estimate D2E/DX2                !
 ! A100  A(33,38,37)           121.1701         estimate D2E/DX2                !
 ! A101  A(33,38,62)           120.5268         estimate D2E/DX2                !
 ! A102  A(37,38,62)           118.3031         estimate D2E/DX2                !
 ! A103  A(31,39,40)           125.8579         estimate D2E/DX2                !
 ! A104  A(31,39,41)           114.304          estimate D2E/DX2                !
 ! A105  A(40,39,41)           119.8371         estimate D2E/DX2                !
 ! A106  A(39,41,63)           103.5178         estimate D2E/DX2                !
 ! A107  L(29,30,31,1,-1)      179.5476         estimate D2E/DX2                !
 ! A108  L(29,30,31,1,-2)      181.3841         estimate D2E/DX2                !
 ! D1    D(19,1,2,3)            -1.1979         estimate D2E/DX2                !
 ! D2    D(19,1,2,43)          178.8759         estimate D2E/DX2                !
 ! D3    D(42,1,2,3)           179.6782         estimate D2E/DX2                !
 ! D4    D(42,1,2,43)           -0.248          estimate D2E/DX2                !
 ! D5    D(2,1,19,18)            2.7803         estimate D2E/DX2                !
 ! D6    D(2,1,19,55)         -178.1086         estimate D2E/DX2                !
 ! D7    D(42,1,19,18)        -178.0933         estimate D2E/DX2                !
 ! D8    D(42,1,19,55)           1.0178         estimate D2E/DX2                !
 ! D9    D(1,2,3,4)             -3.4084         estimate D2E/DX2                !
 ! D10   D(1,2,3,44)           176.9621         estimate D2E/DX2                !
 ! D11   D(43,2,3,4)           176.5177         estimate D2E/DX2                !
 ! D12   D(43,2,3,44)           -3.1118         estimate D2E/DX2                !
 ! D13   D(2,3,4,5)           -174.4151         estimate D2E/DX2                !
 ! D14   D(2,3,4,18)             6.066          estimate D2E/DX2                !
 ! D15   D(44,3,4,5)             5.2045         estimate D2E/DX2                !
 ! D16   D(44,3,4,18)         -174.3144         estimate D2E/DX2                !
 ! D17   D(3,4,5,6)           -133.1059         estimate D2E/DX2                !
 ! D18   D(3,4,5,12)            36.325          estimate D2E/DX2                !
 ! D19   D(18,4,5,6)            46.3811         estimate D2E/DX2                !
 ! D20   D(18,4,5,12)         -144.1881         estimate D2E/DX2                !
 ! D21   D(3,4,18,19)           -4.4518         estimate D2E/DX2                !
 ! D22   D(3,4,18,54)          177.2356         estimate D2E/DX2                !
 ! D23   D(5,4,18,19)          176.0343         estimate D2E/DX2                !
 ! D24   D(5,4,18,54)           -2.2782         estimate D2E/DX2                !
 ! D25   D(4,5,6,7)            -72.1051         estimate D2E/DX2                !
 ! D26   D(4,5,6,11)           109.1154         estimate D2E/DX2                !
 ! D27   D(12,5,6,7)           118.1909         estimate D2E/DX2                !
 ! D28   D(12,5,6,11)          -60.5886         estimate D2E/DX2                !
 ! D29   D(4,5,12,13)         -167.6403         estimate D2E/DX2                !
 ! D30   D(4,5,12,17)           14.3205         estimate D2E/DX2                !
 ! D31   D(6,5,12,13)            1.5983         estimate D2E/DX2                !
 ! D32   D(6,5,12,17)         -176.441          estimate D2E/DX2                !
 ! D33   D(5,6,7,8)            178.4038         estimate D2E/DX2                !
 ! D34   D(5,6,7,45)            -2.4168         estimate D2E/DX2                !
 ! D35   D(11,6,7,8)            -2.7803         estimate D2E/DX2                !
 ! D36   D(11,6,7,45)          176.399          estimate D2E/DX2                !
 ! D37   D(5,6,11,10)          177.8784         estimate D2E/DX2                !
 ! D38   D(5,6,11,49)           -0.0916         estimate D2E/DX2                !
 ! D39   D(7,6,11,10)           -0.9505         estimate D2E/DX2                !
 ! D40   D(7,6,11,49)         -178.9204         estimate D2E/DX2                !
 ! D41   D(6,7,8,9)              4.0448         estimate D2E/DX2                !
 ! D42   D(6,7,8,46)          -176.9241         estimate D2E/DX2                !
 ! D43   D(45,7,8,9)          -175.1522         estimate D2E/DX2                !
 ! D44   D(45,7,8,46)            3.8789         estimate D2E/DX2                !
 ! D45   D(7,8,9,10)            -1.4912         estimate D2E/DX2                !
 ! D46   D(7,8,9,47)           177.9873         estimate D2E/DX2                !
 ! D47   D(46,8,9,10)          179.4782         estimate D2E/DX2                !
 ! D48   D(46,8,9,47)           -1.0432         estimate D2E/DX2                !
 ! D49   D(8,9,10,11)           -2.1916         estimate D2E/DX2                !
 ! D50   D(8,9,10,48)          177.8878         estimate D2E/DX2                !
 ! D51   D(47,9,10,11)         178.3304         estimate D2E/DX2                !
 ! D52   D(47,9,10,48)          -1.5901         estimate D2E/DX2                !
 ! D53   D(9,10,11,6)            3.4455         estimate D2E/DX2                !
 ! D54   D(9,10,11,49)        -178.5656         estimate D2E/DX2                !
 ! D55   D(48,10,11,6)        -176.6339         estimate D2E/DX2                !
 ! D56   D(48,10,11,49)          1.355          estimate D2E/DX2                !
 ! D57   D(5,12,13,14)         173.5943         estimate D2E/DX2                !
 ! D58   D(5,12,13,50)          -5.7783         estimate D2E/DX2                !
 ! D59   D(17,12,13,14)         -8.218          estimate D2E/DX2                !
 ! D60   D(17,12,13,50)        172.4095         estimate D2E/DX2                !
 ! D61   D(5,12,17,16)        -173.1069         estimate D2E/DX2                !
 ! D62   D(5,12,17,53)           6.6315         estimate D2E/DX2                !
 ! D63   D(13,12,17,16)          8.7072         estimate D2E/DX2                !
 ! D64   D(13,12,17,53)       -171.5544         estimate D2E/DX2                !
 ! D65   D(12,13,14,15)          2.011          estimate D2E/DX2                !
 ! D66   D(12,13,14,51)       -177.2872         estimate D2E/DX2                !
 ! D67   D(50,13,14,15)       -178.5851         estimate D2E/DX2                !
 ! D68   D(50,13,14,51)          2.1166         estimate D2E/DX2                !
 ! D69   D(13,14,15,16)          4.0644         estimate D2E/DX2                !
 ! D70   D(13,14,15,24)       -176.2994         estimate D2E/DX2                !
 ! D71   D(51,14,15,16)       -176.6696         estimate D2E/DX2                !
 ! D72   D(51,14,15,24)          2.9667         estimate D2E/DX2                !
 ! D73   D(14,15,16,17)         -3.5775         estimate D2E/DX2                !
 ! D74   D(14,15,16,52)        176.6972         estimate D2E/DX2                !
 ! D75   D(24,15,16,17)        176.79           estimate D2E/DX2                !
 ! D76   D(24,15,16,52)         -2.9354         estimate D2E/DX2                !
 ! D77   D(14,15,24,23)         -5.2497         estimate D2E/DX2                !
 ! D78   D(14,15,24,25)        173.6314         estimate D2E/DX2                !
 ! D79   D(16,15,24,23)        174.359          estimate D2E/DX2                !
 ! D80   D(16,15,24,25)         -6.7599         estimate D2E/DX2                !
 ! D81   D(15,16,17,12)         -3.031          estimate D2E/DX2                !
 ! D82   D(15,16,17,53)        177.2195         estimate D2E/DX2                !
 ! D83   D(52,16,17,12)        176.7069         estimate D2E/DX2                !
 ! D84   D(52,16,17,53)         -3.0427         estimate D2E/DX2                !
 ! D85   D(4,18,19,1)            0.1521         estimate D2E/DX2                !
 ! D86   D(4,18,19,55)        -178.9623         estimate D2E/DX2                !
 ! D87   D(54,18,19,1)         178.56           estimate D2E/DX2                !
 ! D88   D(54,18,19,55)         -0.5544         estimate D2E/DX2                !
 ! D89   D(28,20,21,22)         -0.1168         estimate D2E/DX2                !
 ! D90   D(28,20,21,57)        179.9624         estimate D2E/DX2                !
 ! D91   D(56,20,21,22)        179.74           estimate D2E/DX2                !
 ! D92   D(56,20,21,57)         -0.1807         estimate D2E/DX2                !
 ! D93   D(21,20,28,27)          0.5811         estimate D2E/DX2                !
 ! D94   D(56,20,28,27)       -179.2825         estimate D2E/DX2                !
 ! D95   D(20,21,22,23)         -0.3081         estimate D2E/DX2                !
 ! D96   D(57,21,22,23)        179.6162         estimate D2E/DX2                !
 ! D97   D(21,22,23,24)       -179.6494         estimate D2E/DX2                !
 ! D98   D(21,22,23,27)          0.2302         estimate D2E/DX2                !
 ! D99   D(22,23,24,15)         -1.1088         estimate D2E/DX2                !
 ! D100  D(22,23,24,25)        179.9129         estimate D2E/DX2                !
 ! D101  D(27,23,24,15)        179.0018         estimate D2E/DX2                !
 ! D102  D(27,23,24,25)          0.0235         estimate D2E/DX2                !
 ! D103  D(22,23,27,26)       -179.8002         estimate D2E/DX2                !
 ! D104  D(22,23,27,28)          0.2662         estimate D2E/DX2                !
 ! D105  D(24,23,27,26)          0.0907         estimate D2E/DX2                !
 ! D106  D(24,23,27,28)       -179.8429         estimate D2E/DX2                !
 ! D107  D(15,24,25,26)       -179.2171         estimate D2E/DX2                !
 ! D108  D(23,24,25,26)         -0.0992         estimate D2E/DX2                !
 ! D109  D(24,25,26,27)          0.1501         estimate D2E/DX2                !
 ! D110  D(24,25,26,36)       -178.4864         estimate D2E/DX2                !
 ! D111  D(25,26,27,23)         -0.1595         estimate D2E/DX2                !
 ! D112  D(25,26,27,28)        179.7745         estimate D2E/DX2                !
 ! D113  D(36,26,27,23)        178.2906         estimate D2E/DX2                !
 ! D114  D(36,26,27,28)         -1.7755         estimate D2E/DX2                !
 ! D115  D(25,26,36,35)        149.0235         estimate D2E/DX2                !
 ! D116  D(25,26,36,37)        -31.3235         estimate D2E/DX2                !
 ! D117  D(27,26,36,35)        -29.282          estimate D2E/DX2                !
 ! D118  D(27,26,36,37)        150.3711         estimate D2E/DX2                !
 ! D119  D(23,27,28,20)         -0.642          estimate D2E/DX2                !
 ! D120  D(26,27,28,20)        179.4307         estimate D2E/DX2                !
 ! D121  D(30,31,32,33)          0.1548         estimate D2E/DX2                !
 ! D122  D(30,31,32,58)        178.5372         estimate D2E/DX2                !
 ! D123  D(39,31,32,33)       -179.0233         estimate D2E/DX2                !
 ! D124  D(39,31,32,58)         -0.6409         estimate D2E/DX2                !
 ! D125  D(30,31,39,40)          3.2018         estimate D2E/DX2                !
 ! D126  D(30,31,39,41)       -176.4361         estimate D2E/DX2                !
 ! D127  D(32,31,39,40)       -177.5572         estimate D2E/DX2                !
 ! D128  D(32,31,39,41)          2.805          estimate D2E/DX2                !
 ! D129  D(31,32,33,34)        -39.7069         estimate D2E/DX2                !
 ! D130  D(31,32,33,38)        144.2615         estimate D2E/DX2                !
 ! D131  D(58,32,33,34)        141.8277         estimate D2E/DX2                !
 ! D132  D(58,32,33,38)        -34.2038         estimate D2E/DX2                !
 ! D133  D(32,33,34,35)       -178.6568         estimate D2E/DX2                !
 ! D134  D(32,33,34,59)          0.8435         estimate D2E/DX2                !
 ! D135  D(38,33,34,35)         -2.6069         estimate D2E/DX2                !
 ! D136  D(38,33,34,59)        176.8934         estimate D2E/DX2                !
 ! D137  D(32,33,38,37)        177.8114         estimate D2E/DX2                !
 ! D138  D(32,33,38,62)         -2.1072         estimate D2E/DX2                !
 ! D139  D(34,33,38,37)          1.5458         estimate D2E/DX2                !
 ! D140  D(34,33,38,62)       -178.3729         estimate D2E/DX2                !
 ! D141  D(33,34,35,36)          1.8492         estimate D2E/DX2                !
 ! D142  D(33,34,35,60)       -178.3229         estimate D2E/DX2                !
 ! D143  D(59,34,35,36)       -177.6715         estimate D2E/DX2                !
 ! D144  D(59,34,35,60)          2.1564         estimate D2E/DX2                !
 ! D145  D(34,35,36,26)        179.7401         estimate D2E/DX2                !
 ! D146  D(34,35,36,37)          0.0691         estimate D2E/DX2                !
 ! D147  D(60,35,36,26)         -0.0829         estimate D2E/DX2                !
 ! D148  D(60,35,36,37)       -179.7539         estimate D2E/DX2                !
 ! D149  D(26,36,37,38)        179.1908         estimate D2E/DX2                !
 ! D150  D(26,36,37,61)         -1.3027         estimate D2E/DX2                !
 ! D151  D(35,36,37,38)         -1.1434         estimate D2E/DX2                !
 ! D152  D(35,36,37,61)        178.3631         estimate D2E/DX2                !
 ! D153  D(36,37,38,33)          0.3394         estimate D2E/DX2                !
 ! D154  D(36,37,38,62)       -179.7401         estimate D2E/DX2                !
 ! D155  D(61,37,38,33)       -179.1819         estimate D2E/DX2                !
 ! D156  D(61,37,38,62)          0.7386         estimate D2E/DX2                !
 ! D157  D(31,39,41,63)        179.7774         estimate D2E/DX2                !
 ! D158  D(40,39,41,63)          0.1157         estimate D2E/DX2                !
 --------------------------------------------------------------------------------
 Trust Radius=3.00D-01 FncErr=1.00D-07 GrdErr=1.00D-07
 Number of steps in this run=    344 maximum allowed number of steps=    378.
 GradGradGradGradGradGradGradGradGradGradGradGradGradGradGradGradGradGrad

 Stoichiometry    C34H22N4O2S
 Framework group  C1[X(C34H22N4O2S)]
 Deg. of freedom   183
 Full point group                 C1      NOp   1
 Largest Abelian subgroup         C1      NOp   1
 Largest concise Abelian subgroup C1      NOp   1
                         Standard orientation:                         
 ---------------------------------------------------------------------
 Center     Atomic      Atomic             Coordinates (Angstroms)
 Number     Number       Type             X           Y           Z
 ---------------------------------------------------------------------
      1          6           0       -6.875528    4.761955   -0.108604
      2          6           0       -5.772710    4.260284   -0.788318
      3          6           0       -5.464428    2.893962   -0.721702
      4          6           0       -6.202751    1.999452    0.079347
      5          7           0       -5.801090    0.602481    0.235980
      6          6           0       -6.828145   -0.413758    0.092780
      7          6           0       -7.817449   -0.606790    1.070636
      8          6           0       -8.821984   -1.567174    0.906614
      9          6           0       -8.806919   -2.410578   -0.200480
     10          6           0       -7.806410   -2.273719   -1.158891
     11          6           0       -6.848008   -1.262115   -1.031188
     12          6           0       -4.394400    0.202129    0.300277
     13          6           0       -3.981312   -1.136400    0.196206
     14          6           0       -2.620969   -1.507948    0.126112
     15          6           0       -1.586183   -0.568920    0.196952
     16          6           0       -1.991476    0.752884    0.431265
     17          6           0       -3.352529    1.118767    0.510762
     18          6           0       -7.346736    2.532503    0.703536
     19          6           0       -7.679568    3.891838    0.614111
     20          6           0        1.984651   -4.379987   -0.363876
     21          6           0        0.600683   -4.454425   -0.216682
     22          7           0       -0.226896   -3.388169   -0.077812
     23          6           0        0.455071   -2.202321   -0.090870
     24          6           0       -0.151616   -0.961031    0.040607
     25         16           0        1.078291    0.260624   -0.028288
     26          6           0        2.389059   -0.838434   -0.225673
     27          6           0        1.899996   -2.129848   -0.243312
     28          7           0        2.700045   -3.229399   -0.391332
     29          7           0        8.765899   -0.260503    2.500134
     30          6           0        8.830597    0.329454    1.506107
     31          6           0        8.892813    1.028668    0.266883
     32          6           0        7.848010    1.144263   -0.581026
     33          6           0        6.476198    0.614350   -0.442457
     34          6           0        6.182307   -0.646890    0.078827
     35          6           0        4.856028   -1.101414    0.157230
     36          6           0        3.781277   -0.333059   -0.314868
     37          6           0        4.090633    0.916441   -0.873667
     38          6           0        5.413742    1.383157   -0.933174
     39          6           0       10.196169    1.658929   -0.050273
     40          8           0       11.210033    1.580648    0.622707
     41          8           0       10.202500    2.375307   -1.190342
     42          1           0       -7.116078    5.820710   -0.152495
     43          1           0       -5.146308    4.929502   -1.372595
     44          1           0       -4.622563    2.538012   -1.309772
     45          1           0       -7.811997   -0.018894    1.983226
     46          1           0       -9.606299   -1.664766    1.653392
     47          1           0       -9.568588   -3.178064   -0.311068
     48          1           0       -7.770397   -2.952297   -2.007689
     49          1           0       -6.088762   -1.156895   -1.802491
     50          1           0       -4.700537   -1.948951    0.154937
     51          1           0       -2.412589   -2.566854    0.001574
     52          1           0       -1.266041    1.552724    0.557157
     53          1           0       -3.560785    2.159496    0.741844
     54          1           0       -8.007344    1.922832    1.303250
     55          1           0       -8.563574    4.264877    1.125965
     56          1           0        2.573482   -5.287364   -0.465202
     57          1           0        0.106067   -5.421596   -0.205826
     58          1           0        7.979829    1.719659   -1.498642
     59          1           0        6.964078   -1.315978    0.430645
     60          1           0        4.683665   -2.081489    0.598204
     61          1           0        3.309688    1.553348   -1.283457
     62          1           0        5.596510    2.361810   -1.373353
     63          1           0       11.121234    2.716334   -1.241866
 ---------------------------------------------------------------------
 Rotational constants (GHZ):      0.1789907      0.0241757      0.0218391
 Standard basis: 6-31G (6D, 7F)
 There are   417 symmetry adapted cartesian basis functions of A   symmetry.
 There are   417 symmetry adapted basis functions of A   symmetry.
   417 basis functions,  1014 primitive gaussians,   417 cartesian basis functions
   143 alpha electrons      143 beta electrons
       nuclear repulsion energy      4040.6907300764 Hartrees.



 Warning!  S  atom   25 may be hypervalent but has no d functions.



 NAtoms=   63 NActive=   63 NUniq=   63 SFac= 1.00D+00 NAtFMM=   60 NAOKFM=T Big=T
 Integral buffers will be    131072 words long.
 Raffenetti 1 integral format.
 Two-electron integral symmetry is turned on.
 One-electron integrals computed using PRISM.
 NBasis=   417 RedAO= T EigKep=  5.20D-04  NBF=   417
 NBsUse=   417 1.00D-06 EigRej= -1.00D+00 NBFU=   417
 ExpMin= 1.17D-01 ExpMax= 2.19D+04 ExpMxC= 3.30D+03 IAcc=1 IRadAn=         1 AccDes= 0.00D+00
 Harris functional with IExCor=  205 and IRadAn=       1 diagonalized for initial guess.
 HarFok:  IExCor=  205 AccDes= 0.00D+00 IRadAn=         1 IDoV= 1 UseB2=F ITyADJ=14
 ICtDFT=  3500011 ScaDFX=  1.000000  1.000000  1.000000  1.000000
 FoFCou: FMM=F IPFlag=           0 FMFlag=      100000 FMFlg1=        2001
         NFxFlg=           0 DoJE=T BraDBF=F KetDBF=T FulRan=T
         wScrn=  0.000000 ICntrl=     500 IOpCl=  0 I1Cent=   200000004 NGrid=           0
         NMat0=    1 NMatS0=      1 NMatT0=    0 NMatD0=    1 NMtDS0=    0 NMtDT0=    0
 Petite list used in FoFCou.
 Requested convergence on RMS density matrix=1.00D-08 within 128 cycles.
 Requested convergence on MAX density matrix=1.00D-06.
 Requested convergence on             energy=1.00D-06.
 No special actions if energy rises.
 Integral accuracy reduced to 1.0D-05 until final iterations.
 Initial convergence to 1.0D-05 achieved.  Increase integral accuracy.
 SCF Done:  E(RHF) =  -2064.58673248     A.U. after   20 cycles
            NFock= 20  Conv=0.33D-08     -V/T= 2.0001

 **********************************************************************

            Population analysis using the SCF density.

 **********************************************************************

 Orbital symmetries:
       Occupied  (A) (A) (A) (A) (A) (A) (A) (A) (A) (A) (A) (A)
                 (A) (A) (A) (A) (A) (A) (A) (A) (A) (A) (A) (A)
                 (A) (A) (A) (A) (A) (A) (A) (A) (A) (A) (A) (A)
                 (A) (A) (A) (A) (A) (A) (A) (A) (A) (A) (A) (A)
                 (A) (A) (A) (A) (A) (A) (A) (A) (A) (A) (A) (A)
                 (A) (A) (A) (A) (A) (A) (A) (A) (A) (A) (A) (A)
                 (A) (A) (A) (A) (A) (A) (A) (A) (A) (A) (A) (A)
                 (A) (A) (A) (A) (A) (A) (A) (A) (A) (A) (A) (A)
                 (A) (A) (A) (A) (A) (A) (A) (A) (A) (A) (A) (A)
                 (A) (A) (A) (A) (A) (A) (A) (A) (A) (A) (A) (A)
                 (A) (A) (A) (A) (A) (A) (A) (A) (A) (A) (A) (A)
                 (A) (A) (A) (A) (A) (A) (A) (A) (A) (A) (A)
       Virtual   (A) (A) (A) (A) (A) (A) (A) (A) (A) (A) (A) (A)
                 (A) (A) (A) (A) (A) (A) (A) (A) (A) (A) (A) (A)
                 (A) (A) (A) (A) (A) (A) (A) (A) (A) (A) (A) (A)
                 (A) (A) (A) (A) (A) (A) (A) (A) (A) (A) (A) (A)
                 (A) (A) (A) (A) (A) (A) (A) (A) (A) (A) (A) (A)
                 (A) (A) (A) (A) (A) (A) (A) (A) (A) (A) (A) (A)
                 (A) (A) (A) (A) (A) (A) (A) (A) (A) (A) (A) (A)
                 (A) (A) (A) (A) (A) (A) (A) (A) (A) (A) (A) (A)
                 (A) (A) (A) (A) (A) (A) (A) (A) (A) (A) (A) (A)
                 (A) (A) (A) (A) (A) (A) (A) (A) (A) (A) (A) (A)
                 (A) (A) (A) (A) (A) (A) (A) (A) (A) (A) (A) (A)
                 (A) (A) (A) (A) (A) (A) (A) (A) (A) (A) (A) (A)
                 (A) (A) (A) (A) (A) (A) (A) (A) (A) (A) (A) (A)
                 (A) (A) (A) (A) (A) (A) (A) (A) (A) (A) (A) (A)
                 (A) (A) (A) (A) (A) (A) (A) (A) (A) (A) (A) (A)
                 (A) (A) (A) (A) (A) (A) (A) (A) (A) (A) (A) (A)
                 (A) (A) (A) (A) (A) (A) (A) (A) (A) (A) (A) (A)
                 (A) (A) (A) (A) (A) (A) (A) (A) (A) (A) (A) (A)
                 (A) (A) (A) (A) (A) (A) (A) (A) (A) (A) (A) (A)
                 (A) (A) (A) (A) (A) (A) (A) (A) (A) (A) (A) (A)
                 (A) (A) (A) (A) (A) (A) (A) (A) (A) (A) (A) (A)
                 (A) (A) (A) (A) (A) (A) (A) (A) (A) (A) (A) (A)
                 (A) (A) (A) (A) (A) (A) (A) (A) (A) (A)
 The electronic state is 1-A.
 Alpha  occ. eigenvalues --  -92.00420 -20.63796 -20.58170 -15.62962 -15.62675
 Alpha  occ. eigenvalues --  -15.60451 -15.60144 -11.43217 -11.32042 -11.31488
 Alpha  occ. eigenvalues --  -11.31357 -11.31233 -11.31232 -11.30937 -11.30666
 Alpha  occ. eigenvalues --  -11.30393 -11.30206 -11.30090 -11.29706 -11.29569
 Alpha  occ. eigenvalues --  -11.28899 -11.28030 -11.27200 -11.26733 -11.26612
 Alpha  occ. eigenvalues --  -11.26559 -11.25788 -11.25752 -11.25131 -11.25104
 Alpha  occ. eigenvalues --  -11.25016 -11.24985 -11.24827 -11.24820 -11.24707
 Alpha  occ. eigenvalues --  -11.24644 -11.24474 -11.24441 -11.24409 -11.24097
 Alpha  occ. eigenvalues --  -11.23974  -9.02366  -6.70507  -6.70352  -6.70121
 Alpha  occ. eigenvalues --   -1.50843  -1.38844  -1.33204  -1.26416  -1.25145
 Alpha  occ. eigenvalues --   -1.24746  -1.21041  -1.18899  -1.16430  -1.16178
 Alpha  occ. eigenvalues --   -1.14259  -1.13649  -1.07768  -1.05375  -1.04167
 Alpha  occ. eigenvalues --   -1.03535  -1.03360  -1.02615  -1.01864  -1.01426
 Alpha  occ. eigenvalues --   -1.00120  -0.97333  -0.93404  -0.92911  -0.87630
 Alpha  occ. eigenvalues --   -0.86917  -0.85947  -0.84969  -0.84906  -0.84244
 Alpha  occ. eigenvalues --   -0.82817  -0.82352  -0.81486  -0.79516  -0.78245
 Alpha  occ. eigenvalues --   -0.74466  -0.73986  -0.72955  -0.72115  -0.71902
 Alpha  occ. eigenvalues --   -0.70642  -0.70202  -0.69591  -0.68357  -0.66996
 Alpha  occ. eigenvalues --   -0.66297  -0.65945  -0.65035  -0.64704  -0.64203
 Alpha  occ. eigenvalues --   -0.63210  -0.62817  -0.62749  -0.62140  -0.61242
 Alpha  occ. eigenvalues --   -0.61166  -0.60807  -0.59975  -0.59878  -0.59630
 Alpha  occ. eigenvalues --   -0.59468  -0.58558  -0.58013  -0.55744  -0.55418
 Alpha  occ. eigenvalues --   -0.54702  -0.54175  -0.54018  -0.52838  -0.52628
 Alpha  occ. eigenvalues --   -0.52394  -0.51949  -0.51863  -0.51199  -0.50993
 Alpha  occ. eigenvalues --   -0.50373  -0.50174  -0.49823  -0.49131  -0.48848
 Alpha  occ. eigenvalues --   -0.48778  -0.47797  -0.47566  -0.47407  -0.46748
 Alpha  occ. eigenvalues --   -0.44233  -0.42204  -0.41793  -0.37200  -0.36460
 Alpha  occ. eigenvalues --   -0.35317  -0.34954  -0.34519  -0.34295  -0.33621
 Alpha  occ. eigenvalues --   -0.33442  -0.30551  -0.25660
 Alpha virt. eigenvalues --    0.00248   0.04000   0.10303   0.11871   0.11983
 Alpha virt. eigenvalues --    0.12568   0.13050   0.13201   0.14378   0.14839
 Alpha virt. eigenvalues --    0.17611   0.18144   0.19098   0.19269   0.20561
 Alpha virt. eigenvalues --    0.21987   0.22071   0.23019   0.23995   0.24100
 Alpha virt. eigenvalues --    0.24533   0.26282   0.26798   0.27241   0.28942
 Alpha virt. eigenvalues --    0.29039   0.29515   0.29876   0.30327   0.30973
 Alpha virt. eigenvalues --    0.31500   0.31969   0.32103   0.32442   0.32642
 Alpha virt. eigenvalues --    0.33094   0.33398   0.33731   0.34171   0.34947
 Alpha virt. eigenvalues --    0.35585   0.35871   0.37026   0.37455   0.37641
 Alpha virt. eigenvalues --    0.38087   0.38643   0.39108   0.39756   0.41193
 Alpha virt. eigenvalues --    0.42278   0.42389   0.42967   0.43902   0.44264
 Alpha virt. eigenvalues --    0.45954   0.46438   0.46670   0.47593   0.47965
 Alpha virt. eigenvalues --    0.48158   0.48377   0.49530   0.49710   0.50181
 Alpha virt. eigenvalues --    0.51366   0.51739   0.52153   0.52422   0.52921
 Alpha virt. eigenvalues --    0.53945   0.54419   0.56182   0.56724   0.58622
 Alpha virt. eigenvalues --    0.59714   0.59847   0.61664   0.61983   0.62835
 Alpha virt. eigenvalues --    0.64475   0.65279   0.65788   0.67136   0.69034
 Alpha virt. eigenvalues --    0.71067   0.71652   0.72179   0.72488   0.73053
 Alpha virt. eigenvalues --    0.73423   0.73954   0.74669   0.74925   0.75118
 Alpha virt. eigenvalues --    0.75651   0.76185   0.76406   0.76561   0.76894
 Alpha virt. eigenvalues --    0.77020   0.77630   0.77990   0.78295   0.78463
 Alpha virt. eigenvalues --    0.78660   0.79392   0.79941   0.80681   0.81500
 Alpha virt. eigenvalues --    0.81534   0.82148   0.82521   0.83006   0.83177
 Alpha virt. eigenvalues --    0.83694   0.83928   0.84360   0.84676   0.84948
 Alpha virt. eigenvalues --    0.85161   0.85287   0.85691   0.86017   0.86387
 Alpha virt. eigenvalues --    0.86541   0.86632   0.87106   0.87336   0.87506
 Alpha virt. eigenvalues --    0.87666   0.88036   0.88275   0.88501   0.88808
 Alpha virt. eigenvalues --    0.88916   0.89254   0.89333   0.90468   0.90554
 Alpha virt. eigenvalues --    0.90851   0.91189   0.91564   0.92786   0.93453
 Alpha virt. eigenvalues --    0.93850   0.94529   0.94881   0.96468   0.96674
 Alpha virt. eigenvalues --    0.97164   0.97238   0.98643   0.99073   0.99513
 Alpha virt. eigenvalues --    1.01995   1.02677   1.03310   1.04603   1.05257
 Alpha virt. eigenvalues --    1.05485   1.06947   1.07588   1.07937   1.08691
 Alpha virt. eigenvalues --    1.08976   1.09893   1.10230   1.10559   1.11382
 Alpha virt. eigenvalues --    1.11547   1.11760   1.12353   1.12565   1.12948
 Alpha virt. eigenvalues --    1.13209   1.13362   1.13852   1.14163   1.14722
 Alpha virt. eigenvalues --    1.14908   1.15103   1.15234   1.15491   1.16288
 Alpha virt. eigenvalues --    1.16735   1.17215   1.17711   1.18587   1.18678
 Alpha virt. eigenvalues --    1.19313   1.19544   1.20106   1.20509   1.20721
 Alpha virt. eigenvalues --    1.21203   1.22134   1.22544   1.23257   1.24985
 Alpha virt. eigenvalues --    1.25245   1.26128   1.26876   1.26939   1.27762
 Alpha virt. eigenvalues --    1.28051   1.29032   1.30572   1.30716   1.31255
 Alpha virt. eigenvalues --    1.31545   1.31871   1.32682   1.34314   1.34776
 Alpha virt. eigenvalues --    1.35141   1.36007   1.36608   1.37414   1.38619
 Alpha virt. eigenvalues --    1.38818   1.39485   1.40831   1.40978   1.41451
 Alpha virt. eigenvalues --    1.42231   1.43007   1.43094   1.44524   1.44935
 Alpha virt. eigenvalues --    1.45271   1.45859   1.46675   1.47236   1.48087
 Alpha virt. eigenvalues --    1.48810   1.49590   1.50805   1.51855   1.52404
 Alpha virt. eigenvalues --    1.54480   1.55648   1.56551   1.58698   1.59538
 Alpha virt. eigenvalues --    1.61051   1.62499   1.65440   1.66874   1.69193
 Alpha virt. eigenvalues --    1.69600   1.70545   1.73547   1.73765   1.74943
 Alpha virt. eigenvalues --    1.76565   1.77273   1.78949   1.79310   1.81970
 Alpha virt. eigenvalues --    1.86151   1.87863   1.92222   1.97029   1.97817
 Alpha virt. eigenvalues --    1.98601   2.04766   2.13094   2.16516   2.17389
 Alpha virt. eigenvalues --    2.19618   2.26841   2.31789   2.36475
          Condensed to atoms (all electrons):
 Mulliken charges:
               1
     1  C   -0.204214
     2  C   -0.193239
     3  C   -0.231563
     4  C    0.366610
     5  N   -1.108989
     6  C    0.282197
     7  C   -0.191839
     8  C   -0.205954
     9  C   -0.194252
    10  C   -0.202422
    11  C   -0.191397
    12  C    0.450897
    13  C   -0.270071
    14  C   -0.171845
    15  C    0.041333
    16  C   -0.229441
    17  C   -0.261965
    18  C   -0.210185
    19  C   -0.196093
    20  C    0.008980
    21  C    0.012783
    22  N   -0.497975
    23  C    0.289619
    24  C   -0.493642
    25  S    0.715451
    26  C   -0.547770
    27  C    0.305854
    28  N   -0.488041
    29  N   -0.278271
    30  C    0.069536
    31  C   -0.060883
    32  C   -0.053455
    33  C   -0.070079
    34  C   -0.174079
    35  C   -0.177485
    36  C    0.071104
    37  C   -0.234553
    38  C   -0.197225
    39  C    0.767026
    40  O   -0.539231
    41  O   -0.729411
    42  H    0.202991
    43  H    0.206367
    44  H    0.223344
    45  H    0.219747
    46  H    0.208599
    47  H    0.206338
    48  H    0.209492
    49  H    0.224323
    50  H    0.230104
    51  H    0.272153
    52  H    0.224015
    53  H    0.231744
    54  H    0.207578
    55  H    0.207649
    56  H    0.233704
    57  H    0.231351
    58  H    0.274395
    59  H    0.247020
    60  H    0.256230
    61  H    0.230513
    62  H    0.222891
    63  H    0.453629
 Sum of Mulliken charges =   0.00000
 Mulliken charges with hydrogens summed into heavy atoms:
               1
     1  C   -0.001223
     2  C    0.013128
     3  C   -0.008219
     4  C    0.366610
     5  N   -1.108989
     6  C    0.282197
     7  C    0.027909
     8  C    0.002646
     9  C    0.012086
    10  C    0.007070
    11  C    0.032926
    12  C    0.450897
    13  C   -0.039967
    14  C    0.100308
    15  C    0.041333
    16  C   -0.005426
    17  C   -0.030220
    18  C   -0.002607
    19  C    0.011555
    20  C    0.242683
    21  C    0.244134
    22  N   -0.497975
    23  C    0.289619
    24  C   -0.493642
    25  S    0.715451
    26  C   -0.547770
    27  C    0.305854
    28  N   -0.488041
    29  N   -0.278271
    30  C    0.069536
    31  C   -0.060883
    32  C    0.220940
    33  C   -0.070079
    34  C    0.072941
    35  C    0.078744
    36  C    0.071104
    37  C   -0.004041
    38  C    0.025666
    39  C    0.767026
    40  O   -0.539231
    41  O   -0.275782
 Electronic spatial extent (au):  <R**2>=          44472.8138
 Charge=              0.0000 electrons
 Dipole moment (field-independent basis, Debye):
    X=             -6.4877    Y=              0.3568    Z=             -5.1075  Tot=              8.2646
 Quadrupole moment (field-independent basis, Debye-Ang):
   XX=           -280.8086   YY=           -210.2246   ZZ=           -258.9038
   XY=             15.5638   XZ=            -52.1188   YZ=             -1.3553
 Traceless Quadrupole moment (field-independent basis, Debye-Ang):
   XX=            -30.8296   YY=             39.7544   ZZ=             -8.9248
   XY=             15.5638   XZ=            -52.1188   YZ=             -1.3553
 Octapole moment (field-independent basis, Debye-Ang**2):
  XXX=           -884.7217  YYY=            -40.1013  ZZZ=            -36.2980  XYY=             25.5573
  XXY=            104.1953  XXZ=           -390.7076  XZZ=            -82.1602  YZZ=             10.8634
  YYZ=            -32.5134  XYZ=            -65.6497
 Hexadecapole moment (field-independent basis, Debye-Ang**3):
 XXXX=         -59389.1239 YYYY=          -5965.3915 ZZZZ=          -1140.8590 XXXY=           2057.5611
 XXXZ=          -5997.7451 YYYX=            -77.4299 YYYZ=            -17.1786 ZZZX=           -313.1093
 ZZZY=              6.4841 XXYY=          -8927.7618 XXZZ=          -9943.1771 YYZZ=          -1371.3404
 XXYZ=           -171.1450 YYXZ=            -54.8397 ZZXY=            184.0498
 N-N= 4.040690730076D+03 E-N=-1.291728966065D+04  KE= 2.064309296220D+03
 Calling FoFJK, ICntrl=      2127 FMM=T ISym2X=0 I1Cent= 0 IOpClX= 0 NMat=1 NMatS=1 NMatT=0.
 ***** Axes restored to original set *****
 -------------------------------------------------------------------
 Center     Atomic                   Forces (Hartrees/Bohr)
 Number     Number              X              Y              Z
 -------------------------------------------------------------------
      1        6          -0.004062689    0.003183283   -0.007163880
      2        6           0.002904170   -0.002414216    0.008128179
      3        6          -0.001858543   -0.008072441   -0.001664809
      4        6          -0.002616192   -0.001383162   -0.007109898
      5        7           0.003260636   -0.011947605   -0.004538426
      6        6          -0.000237928    0.000402540    0.011182073
      7        6           0.003693621    0.001562336   -0.002413499
      8        6           0.001050210   -0.002419248   -0.001892467
      9        6          -0.000841163    0.003379044    0.004218289
     10        6           0.000121094   -0.002447898   -0.005305849
     11        6          -0.001034549   -0.002570691   -0.001085484
     12        6          -0.003570064    0.012894644    0.000431893
     13        6           0.003356168   -0.011245828    0.011323978
     14        6          -0.009466084    0.017340568    0.011111444
     15        6           0.004148314   -0.006565167    0.004846213
     16        6          -0.008140315    0.016075660   -0.003920082
     17        6           0.007012555   -0.013246418   -0.015723862
     18        6           0.006143832    0.008371747   -0.000072250
     19        6           0.002049699   -0.005200878    0.006986315
     20        6           0.022997777   -0.057867072   -0.047346301
     21        6          -0.034099155    0.071502911   -0.000012683
     22        7           0.034258090   -0.065525841    0.028240780
     23        6          -0.008127855    0.013668694   -0.013333106
     24        6          -0.009547167    0.020464630    0.014420102
     25       16          -0.009784235    0.013944037   -0.032346110
     26        6           0.012979706   -0.024782577    0.005740921
     27        6           0.001126635   -0.004236864   -0.024266976
     28        7          -0.011884899    0.040211989    0.067226209
     29        7          -0.023193348   -0.012004633   -0.013209256
     30        6           0.025899331    0.013820013    0.015672147
     31        6          -0.011555950   -0.006834588   -0.004525161
     32        6          -0.007659492    0.002133106   -0.002377393
     33        6          -0.000769819   -0.002694441    0.002570443
     34        6           0.001714689    0.011881446    0.012857150
     35        6           0.012822333   -0.009814538    0.002951326
     36        6           0.002147396   -0.003629172    0.006127257
     37        6          -0.000849508   -0.005286152   -0.013924683
     38        6          -0.009894536    0.011897458    0.005851079
     39        6           0.009646524    0.011216870    0.010703133
     40        8          -0.007056855    0.007876871    0.005454938
     41        8           0.017916150   -0.024544166   -0.017616405
     42        1           0.003477553   -0.003790788    0.008584728
     43        1           0.002307109    0.005440518    0.009144419
     44        1           0.002314260    0.012031288   -0.000094564
     45        1          -0.005967316   -0.008175900    0.005336975
     46        1          -0.000839239   -0.010740179   -0.002618217
     47        1           0.002652747   -0.004198795   -0.008962896
     48        1           0.003848449    0.005682807   -0.008654168
     49        1           0.003113155    0.010933807    0.000078742
     50        1          -0.000153962   -0.004043172   -0.012795711
     51        1          -0.001051409    0.003123475   -0.013857219
     52        1          -0.001042221    0.003549365    0.010129300
     53        1          -0.000623991   -0.005259516    0.012414334
     54        1          -0.001379000   -0.010468749   -0.003792278
     55        1           0.001689626   -0.010619884    0.003264089
     56        1          -0.005777352    0.009458903   -0.005932856
     57        1           0.001168936   -0.004985837   -0.011415900
     58        1           0.015324337    0.002404736    0.000475233
     59        1          -0.008612365    0.006131634   -0.007184335
     60        1          -0.009694412   -0.001761328   -0.011752550
     61        1           0.009028021   -0.004574045    0.005293153
     62        1           0.005501768    0.000896503    0.009437329
     63        1          -0.024283275    0.011870902    0.006707106
 -------------------------------------------------------------------
 Cartesian Forces:  Max     0.071502911 RMS     0.014649660

 GradGradGradGradGradGradGradGradGradGradGradGradGradGradGradGradGradGrad
 Berny optimization.
 FormGI is forming the generalized inverse of G from B-inverse, IUseBI=4.
 GSVD:  received Info=                   1 from GESDD.
 Internal  Forces:  Max     0.054989615 RMS     0.008944474
 Search for a local minimum.
 Step number   1 out of a maximum of  344
 All quantities printed in internal units (Hartrees-Bohrs-Radians)
 Mixed Optimization -- RFO/linear search
 Second derivative matrix not updated -- first step.
 ITU=  0
     Eigenvalues ---    0.00827   0.00846   0.00872   0.00974   0.00980
     Eigenvalues ---    0.01003   0.01005   0.01069   0.01428   0.01457
     Eigenvalues ---    0.01554   0.01615   0.01620   0.01675   0.01690
     Eigenvalues ---    0.01692   0.01694   0.01768   0.01768   0.01793
     Eigenvalues ---    0.01870   0.01942   0.01943   0.01951   0.01971
     Eigenvalues ---    0.01979   0.01993   0.01993   0.02006   0.02012
     Eigenvalues ---    0.02016   0.02022   0.02026   0.02033   0.02039
     Eigenvalues ---    0.02041   0.02043   0.02045   0.02050   0.02060
     Eigenvalues ---    0.02061   0.02064   0.02076   0.02078   0.02089
     Eigenvalues ---    0.02106   0.02109   0.02137   0.02139   0.02149
     Eigenvalues ---    0.02158   0.02172   0.02172   0.02194   0.02195
     Eigenvalues ---    0.02200   0.02206   0.02230   0.02241   0.02400
     Eigenvalues ---    0.02743   0.15991   0.15994   0.15997   0.15998
     Eigenvalues ---    0.15998   0.15999   0.15999   0.15999   0.15999
     Eigenvalues ---    0.15999   0.15999   0.15999   0.16000   0.16000
     Eigenvalues ---    0.16000   0.16000   0.16000   0.16000   0.16000
     Eigenvalues ---    0.16000   0.16000   0.16000   0.21936   0.21972
     Eigenvalues ---    0.21984   0.21995   0.21996   0.22000   0.22001
     Eigenvalues ---    0.22339   0.22874   0.22950   0.23425   0.23449
     Eigenvalues ---    0.23983   0.23987   0.24356   0.24711   0.24750
     Eigenvalues ---    0.24938   0.24984   0.24991   0.24994   0.24996
     Eigenvalues ---    0.24998   0.24999   0.24999   0.24999   0.24999
     Eigenvalues ---    0.25000   0.25000   0.25000   0.25000   0.25000
     Eigenvalues ---    0.31299   0.32500   0.32866   0.34139   0.34333
     Eigenvalues ---    0.34687   0.34902   0.34982   0.34993   0.35060
     Eigenvalues ---    0.35105   0.35105   0.35115   0.35119   0.35127
     Eigenvalues ---    0.35147   0.35159   0.35171   0.35178   0.35206
     Eigenvalues ---    0.35221   0.35229   0.35235   0.35237   0.35253
     Eigenvalues ---    0.35288   0.35329   0.35918   0.36472   0.36717
     Eigenvalues ---    0.37994   0.39870   0.40838   0.40943   0.41281
     Eigenvalues ---    0.41492   0.41621   0.41772   0.41829   0.41872
     Eigenvalues ---    0.43725   0.44446   0.44640   0.44757   0.44859
     Eigenvalues ---    0.44925   0.45066   0.45075   0.45240   0.45241
     Eigenvalues ---    0.45403   0.45473   0.45715   0.45954   0.46057
     Eigenvalues ---    0.46395   0.46780   0.47289   0.47956   0.48889
     Eigenvalues ---    0.50358   0.51126   0.52850   0.53167   0.54909
     Eigenvalues ---    0.55778   0.95647   1.29295
 RFO step:  Lambda=-6.62048157D-02 EMin= 8.26983802D-03
 Linear search not attempted -- first point.
 Maximum step size (   0.300) exceeded in Quadratic search.
    -- Step size scaled by   0.760
 Iteration  1 RMS(Cart)=  0.09209815 RMS(Int)=  0.00191858
 Iteration  2 RMS(Cart)=  0.00325823 RMS(Int)=  0.00008130
 Iteration  3 RMS(Cart)=  0.00000559 RMS(Int)=  0.00008123
 Iteration  4 RMS(Cart)=  0.00000000 RMS(Int)=  0.00008123
 Variable       Old X    -DE/DX   Delta X   Delta X   Delta X     New X
                                 (Linear)    (Quad)   (Total)
    R1        2.62522  -0.00436   0.00000  -0.00576  -0.00578   2.61943
    R2        2.62250  -0.00332   0.00000  -0.00423  -0.00425   2.61825
    R3        2.05342  -0.01000   0.00000  -0.01817  -0.01817   2.03526
    R4        2.64987  -0.01737   0.00000  -0.02552  -0.02551   2.62436
    R5        2.05417  -0.01059   0.00000  -0.01926  -0.01926   2.03490
    R6        2.66374  -0.01434   0.00000  -0.02195  -0.02192   2.64182
    R7        2.05387  -0.01189   0.00000  -0.02163  -0.02163   2.03224
    R8        2.76275  -0.02270   0.00000  -0.03982  -0.03982   2.72293
    R9        2.66073  -0.01612   0.00000  -0.02445  -0.02442   2.63631
   R10        2.74374  -0.01384   0.00000  -0.02358  -0.02358   2.72017
   R11        2.76649  -0.03876   0.00000  -0.06839  -0.06839   2.69811
   R12        2.65383  -0.01515   0.00000  -0.02271  -0.02269   2.63114
   R13        2.66137  -0.01582   0.00000  -0.02408  -0.02406   2.63731
   R14        2.64449  -0.01210   0.00000  -0.01750  -0.01750   2.62699
   R15        2.05144  -0.01113   0.00000  -0.02018  -0.02018   2.03126
   R16        2.63019  -0.00709   0.00000  -0.00963  -0.00965   2.62054
   R17        2.05481  -0.01093   0.00000  -0.01990  -0.01990   2.03491
   R18        2.63093  -0.00568   0.00000  -0.00771  -0.00773   2.62320
   R19        2.05399  -0.01025   0.00000  -0.01864  -0.01864   2.03535
   R20        2.64439  -0.01429   0.00000  -0.02083  -0.02083   2.62356
   R21        2.05470  -0.01084   0.00000  -0.01974  -0.01974   2.03496
   R22        2.05489  -0.01113   0.00000  -0.02028  -0.02028   2.03461
   R23        2.65446  -0.00941   0.00000  -0.01381  -0.01381   2.64066
   R24        2.65237  -0.00695   0.00000  -0.01027  -0.01026   2.64211
   R25        2.66813  -0.02847   0.00000  -0.04287  -0.04287   2.62526
   R26        2.05210  -0.01308   0.00000  -0.02372  -0.02372   2.02838
   R27        2.64398  -0.00451   0.00000  -0.00650  -0.00651   2.63747
   R28        2.05295  -0.01383   0.00000  -0.02512  -0.02512   2.02783
   R29        2.64989  -0.00755   0.00000  -0.01116  -0.01117   2.63872
   R30        2.82587  -0.02324   0.00000  -0.04474  -0.04474   2.78113
   R31        2.66757  -0.03160   0.00000  -0.04783  -0.04783   2.61974
   R32        2.05438  -0.01063   0.00000  -0.01934  -0.01934   2.03503
   R33        2.05267  -0.01325   0.00000  -0.02406  -0.02406   2.02861
   R34        2.65005  -0.01528   0.00000  -0.02236  -0.02236   2.62768
   R35        2.04209  -0.01021   0.00000  -0.01825  -0.01825   2.02385
   R36        2.05505  -0.01110   0.00000  -0.02023  -0.02023   2.03482
   R37        2.63383   0.02098   0.00000   0.02844   0.02815   2.66198
   R38        2.56084  -0.05324   0.00000  -0.06753  -0.06771   2.49313
   R39        2.05305  -0.01223   0.00000  -0.02222  -0.02222   2.03083
   R40        2.56410  -0.05499   0.00000  -0.07024  -0.07039   2.49371
   R41        2.05293  -0.01226   0.00000  -0.02226  -0.02226   2.03066
   R42        2.58519   0.00421   0.00000   0.00621   0.00638   2.59156
   R43        2.62267  -0.00576   0.00000  -0.00857  -0.00857   2.61410
   R44        2.74908  -0.01095   0.00000  -0.01811  -0.01782   2.73126
   R45        3.27848   0.01932   0.00000   0.03882   0.03883   3.31731
   R46        3.25395   0.02702   0.00000   0.05239   0.05239   3.30635
   R47        2.60977  -0.00587   0.00000  -0.00824  -0.00825   2.60152
   R48        2.80395  -0.01566   0.00000  -0.02921  -0.02921   2.77474
   R49        2.58485   0.00561   0.00000   0.00815   0.00829   2.59314
   R50        2.18778  -0.02924   0.00000  -0.01636  -0.01636   2.17142
   R51        2.69142   0.00394   0.00000   0.00619   0.00619   2.69760
   R52        2.55213  -0.01277   0.00000  -0.01578  -0.01578   2.53635
   R53        2.80072  -0.00878   0.00000  -0.01630  -0.01630   2.78442
   R54        2.79135  -0.00671   0.00000  -0.01228  -0.01228   2.77907
   R55        2.06186  -0.01306   0.00000  -0.02404  -0.02404   2.03782
   R56        2.63807  -0.00287   0.00000  -0.00395  -0.00396   2.63411
   R57        2.64608  -0.00572   0.00000  -0.00837  -0.00838   2.63770
   R58        2.65354  -0.02124   0.00000  -0.03113  -0.03113   2.62241
   R59        2.05505  -0.01246   0.00000  -0.02269  -0.02269   2.03235
   R60        2.65124  -0.00685   0.00000  -0.01002  -0.01001   2.64122
   R61        2.05686  -0.01501   0.00000  -0.02743  -0.02743   2.02943
   R62        2.65182  -0.00703   0.00000  -0.01050  -0.01049   2.64133
   R63        2.65369  -0.02420   0.00000  -0.03589  -0.03589   2.61780
   R64        2.05577  -0.01126   0.00000  -0.02054  -0.02054   2.03523
   R65        2.05705  -0.01088   0.00000  -0.01988  -0.01988   2.03716
   R66        2.30434  -0.01065   0.00000  -0.00792  -0.00792   2.29643
   R67        2.54447   0.01449   0.00000   0.01766   0.01766   2.56213
   R68        1.85446  -0.02089   0.00000  -0.02750  -0.02750   1.82696
    A1        2.08096  -0.00270   0.00000  -0.00506  -0.00514   2.07583
    A2        2.10346   0.00087   0.00000   0.00092   0.00096   2.10442
    A3        2.09866   0.00184   0.00000   0.00416   0.00420   2.10285
    A4        2.09804   0.00049   0.00000   0.00251   0.00247   2.10050
    A5        2.09224   0.00180   0.00000   0.00562   0.00563   2.09787
    A6        2.09291  -0.00229   0.00000  -0.00812  -0.00810   2.08481
    A7        2.12960  -0.00403   0.00000  -0.01103  -0.01103   2.11856
    A8        2.05296   0.00472   0.00000   0.01462   0.01459   2.06755
    A9        2.10061  -0.00068   0.00000  -0.00352  -0.00355   2.09705
   A10        2.12157  -0.00709   0.00000  -0.01666  -0.01672   2.10485
   A11        2.02334   0.01075   0.00000   0.02498   0.02501   2.04835
   A12        2.13824  -0.00367   0.00000  -0.00845  -0.00852   2.12972
   A13        2.05318   0.00411   0.00000   0.00998   0.00998   2.06316
   A14        2.12940  -0.00192   0.00000  -0.00463  -0.00463   2.12477
   A15        2.08590  -0.00219   0.00000  -0.00527  -0.00527   2.08062
   A16        2.12451  -0.00237   0.00000  -0.00518  -0.00520   2.11931
   A17        2.10634  -0.00442   0.00000  -0.01011  -0.01013   2.09622
   A18        2.05215   0.00680   0.00000   0.01540   0.01542   2.06757
   A19        2.11578  -0.00313   0.00000  -0.00845  -0.00847   2.10731
   A20        2.10293  -0.00108   0.00000  -0.00472  -0.00474   2.09819
   A21        2.06439   0.00420   0.00000   0.01303   0.01301   2.07740
   A22        2.09592   0.00038   0.00000   0.00239   0.00235   2.09827
   A23        2.09309  -0.00132   0.00000  -0.00497  -0.00495   2.08814
   A24        2.09405   0.00094   0.00000   0.00262   0.00264   2.09669
   A25        2.08953  -0.00195   0.00000  -0.00328  -0.00334   2.08619
   A26        2.09580   0.00112   0.00000   0.00214   0.00217   2.09797
   A27        2.09782   0.00083   0.00000   0.00115   0.00118   2.09900
   A28        2.09489   0.00030   0.00000   0.00173   0.00169   2.09658
   A29        2.09422   0.00103   0.00000   0.00312   0.00313   2.09736
   A30        2.09407  -0.00134   0.00000  -0.00484  -0.00483   2.08925
   A31        2.11526  -0.00226   0.00000  -0.00647  -0.00650   2.10876
   A32        2.09203  -0.00095   0.00000  -0.00360  -0.00365   2.08838
   A33        2.07536   0.00327   0.00000   0.01061   0.01056   2.08592
   A34        2.14113  -0.00753   0.00000  -0.01889  -0.01894   2.12219
   A35        2.14272  -0.00512   0.00000  -0.01311  -0.01316   2.12955
   A36        1.99889   0.01259   0.00000   0.03150   0.03147   2.03035
   A37        2.13859  -0.00640   0.00000  -0.01536  -0.01538   2.12321
   A38        2.11889   0.00061   0.00000  -0.00101  -0.00102   2.11787
   A39        2.02565   0.00580   0.00000   0.01646   0.01645   2.04210
   A40        2.13347  -0.00437   0.00000  -0.01004  -0.01007   2.12339
   A41        2.03420   0.00563   0.00000   0.01661   0.01661   2.05082
   A42        2.11545  -0.00125   0.00000  -0.00649  -0.00649   2.10896
   A43        2.01234   0.00778   0.00000   0.01967   0.01962   2.03197
   A44        2.12731   0.00117   0.00000   0.00234   0.00237   2.12968
   A45        2.14351  -0.00896   0.00000  -0.02201  -0.02199   2.12152
   A46        2.13224  -0.00209   0.00000  -0.00473  -0.00476   2.12748
   A47        2.11765  -0.00018   0.00000  -0.00173  -0.00173   2.11593
   A48        2.03328   0.00227   0.00000   0.00648   0.00649   2.03977
   A49        2.13885  -0.00714   0.00000  -0.01804  -0.01808   2.12077
   A50        2.11216   0.00163   0.00000   0.00251   0.00249   2.11465
   A51        2.03217   0.00552   0.00000   0.01558   0.01556   2.04773
   A52        2.13122  -0.00637   0.00000  -0.01692  -0.01692   2.11430
   A53        2.12837  -0.00156   0.00000  -0.00744  -0.00747   2.12089
   A54        2.02325   0.00797   0.00000   0.02462   0.02460   2.04785
   A55        2.09840   0.00205   0.00000   0.00698   0.00694   2.10534
   A56        2.09556   0.00076   0.00000   0.00254   0.00255   2.09812
   A57        2.08912  -0.00281   0.00000  -0.00946  -0.00945   2.07967
   A58        2.17936  -0.00881   0.00000  -0.02658  -0.02700   2.15236
   A59        2.09835   0.00148   0.00000   0.00344   0.00365   2.10201
   A60        2.00547   0.00734   0.00000   0.02314   0.02335   2.02882
   A61        2.18276  -0.01029   0.00000  -0.03072  -0.03112   2.15164
   A62        2.09520   0.00257   0.00000   0.00671   0.00691   2.10211
   A63        2.00522   0.00772   0.00000   0.02402   0.02422   2.02944
   A64        1.95644   0.02722   0.00000   0.06595   0.06597   2.02241
   A65        2.16093   0.01113   0.00000   0.02555   0.02530   2.18622
   A66        2.14043  -0.01621   0.00000  -0.03406  -0.03364   2.10679
   A67        1.98183   0.00508   0.00000   0.00851   0.00835   1.99018
   A68        2.29667  -0.00373   0.00000  -0.00925  -0.00930   2.28736
   A69        2.09393   0.00178   0.00000   0.00400   0.00395   2.09788
   A70        1.89246   0.00196   0.00000   0.00530   0.00540   1.89785
   A71        1.66569  -0.01187   0.00000  -0.02363  -0.02348   1.64221
   A72        1.90578   0.00001   0.00000   0.00154   0.00160   1.90738
   A73        2.09872   0.00259   0.00000   0.00552   0.00548   2.10420
   A74        2.27838  -0.00259   0.00000  -0.00694  -0.00698   2.27140
   A75        1.97902   0.00482   0.00000   0.00830   0.00813   1.98716
   A76        2.15585  -0.01869   0.00000  -0.04010  -0.03970   2.11615
   A77        2.14831   0.01387   0.00000   0.03179   0.03155   2.17986
   A78        1.95148   0.02679   0.00000   0.06553   0.06550   2.01698
   A79        2.15856   0.00021   0.00000   0.00050   0.00050   2.15906
   A80        2.01904   0.00095   0.00000   0.00230   0.00230   2.02134
   A81        2.10550  -0.00116   0.00000  -0.00279  -0.00279   2.10271
   A82        2.25089  -0.00162   0.00000  -0.00430  -0.00430   2.24660
   A83        2.07110  -0.00747   0.00000  -0.02568  -0.02568   2.04542
   A84        1.96090   0.00909   0.00000   0.03000   0.03000   1.99090
   A85        2.15875  -0.00075   0.00000  -0.00199  -0.00200   2.15675
   A86        2.06556  -0.00169   0.00000  -0.00423  -0.00423   2.06133
   A87        2.05689   0.00250   0.00000   0.00675   0.00673   2.06361
   A88        2.10846  -0.00079   0.00000  -0.00101  -0.00102   2.10744
   A89        2.12390  -0.00213   0.00000  -0.00798  -0.00798   2.11592
   A90        2.05079   0.00292   0.00000   0.00900   0.00900   2.05979
   A91        2.12643  -0.00477   0.00000  -0.01184  -0.01184   2.11459
   A92        2.05291   0.00517   0.00000   0.01527   0.01527   2.06818
   A93        2.10384  -0.00040   0.00000  -0.00343  -0.00343   2.10041
   A94        2.10833   0.00197   0.00000   0.00467   0.00467   2.11299
   A95        2.13419  -0.00862   0.00000  -0.02079  -0.02080   2.11338
   A96        2.04066   0.00665   0.00000   0.01614   0.01615   2.05681
   A97        2.11825  -0.00236   0.00000  -0.00652  -0.00653   2.11172
   A98        2.10953  -0.00077   0.00000  -0.00330  -0.00330   2.10623
   A99        2.05537   0.00313   0.00000   0.00978   0.00978   2.06515
   A100       2.11482  -0.00119   0.00000  -0.00318  -0.00319   2.11163
   A101       2.10359  -0.00065   0.00000  -0.00260  -0.00259   2.10100
   A102       2.06478   0.00184   0.00000   0.00578   0.00578   2.07056
   A103       2.19664  -0.00565   0.00000  -0.01358  -0.01358   2.18306
   A104       1.99498  -0.00092   0.00000  -0.00221  -0.00221   1.99277
   A105       2.09155   0.00657   0.00000   0.01581   0.01581   2.10736
   A106       1.80673   0.03416   0.00000   0.11480   0.11480   1.92153
   A107       3.13370   0.00056   0.00000   0.00510   0.00510   3.13880
   A108       3.16575  -0.00240   0.00000  -0.02172  -0.02172   3.14403
    D1       -0.02091   0.00045   0.00000   0.00247   0.00237  -0.01854
    D2        3.12197  -0.00003   0.00000  -0.00242  -0.00258   3.11939
    D3        3.13598   0.00007   0.00000   0.00072   0.00074   3.13671
    D4       -0.00433  -0.00041   0.00000  -0.00417  -0.00421  -0.00854
    D5        0.04853  -0.00084   0.00000  -0.00637  -0.00632   0.04221
    D6       -3.10858  -0.00045   0.00000  -0.00223  -0.00209  -3.11067
    D7       -3.10831  -0.00047   0.00000  -0.00466  -0.00472  -3.11303
    D8        0.01776  -0.00008   0.00000  -0.00052  -0.00049   0.01727
    D9       -0.05949   0.00145   0.00000   0.01041   0.01028  -0.04921
   D10        3.08857  -0.00006   0.00000  -0.00231  -0.00244   3.08613
   D11        3.08082   0.00194   0.00000   0.01531   0.01521   3.09602
   D12       -0.05431   0.00043   0.00000   0.00259   0.00248  -0.05183
   D13       -3.04412  -0.00351   0.00000  -0.03152  -0.03151  -3.07563
   D14        0.10587  -0.00168   0.00000  -0.01571  -0.01569   0.09018
   D15        0.09084  -0.00194   0.00000  -0.01839  -0.01851   0.07233
   D16       -3.04236  -0.00010   0.00000  -0.00258  -0.00269  -3.04505
   D17       -2.32314   0.00502   0.00000   0.04885   0.04870  -2.27444
   D18        0.63399   0.00484   0.00000   0.04877   0.04862   0.68261
   D19        0.80950   0.00313   0.00000   0.03213   0.03228   0.84179
   D20       -2.51656   0.00295   0.00000   0.03206   0.03220  -2.48435
   D21       -0.07770   0.00127   0.00000   0.01156   0.01153  -0.06617
   D22        3.09335  -0.00012   0.00000   0.00021   0.00030   3.09364
   D23        3.07238   0.00314   0.00000   0.02759   0.02763   3.10000
   D24       -0.03976   0.00175   0.00000   0.01623   0.01640  -0.02336
   D25       -1.25847  -0.00726   0.00000  -0.07212  -0.07215  -1.33062
   D26        1.90442  -0.00800   0.00000  -0.07842  -0.07839   1.82603
   D27        2.06282  -0.00709   0.00000  -0.07206  -0.07209   1.99073
   D28       -1.05747  -0.00783   0.00000  -0.07836  -0.07833  -1.13580
   D29       -2.92587   0.00018   0.00000   0.00423   0.00442  -2.92146
   D30        0.24994   0.00211   0.00000   0.02230   0.02211   0.27205
   D31        0.02789   0.00064   0.00000   0.00571   0.00590   0.03379
   D32       -3.07948   0.00257   0.00000   0.02378   0.02360  -3.05588
   D33        3.11373   0.00018   0.00000   0.00136   0.00134   3.11508
   D34       -0.04218  -0.00116   0.00000  -0.01027  -0.01023  -0.05241
[...]
     20          6           0        1.974460   -4.195061   -0.407517
     21          6           0        0.527025   -4.270698   -0.389530
     22          7           0       -0.208299   -3.220823   -0.301477
     23          6           0        0.420348   -1.989478   -0.221056
     24          6           0       -0.222091   -0.789823   -0.113826
     25         16           0        1.005851    0.505472   -0.028020
     26          6           0        2.374968   -0.653914   -0.128158
     27          6           0        1.861855   -1.912941   -0.226115
     28          7           0        2.607040   -3.079266   -0.329113
     29          7           0        9.461540   -1.647167    0.601067
     30          6           0        9.245780   -0.536819    0.409071
     31          6           0        8.974588    0.845147    0.170392
     32          6           0        7.747872    1.371341   -0.013332
     33          6           0        6.419085    0.771961   -0.030775
     34          6           0        6.131296   -0.586871    0.138487
     35          6           0        4.831010   -1.049446    0.105471
     36          6           0        3.755627   -0.174852   -0.101508
     37          6           0        4.043030    1.183573   -0.273515
     38          6           0        5.342450    1.641307   -0.237977
     39          6           0       10.168068    1.704775    0.136225
     40          8           0       11.306478    1.318700    0.291038
     41          8           0        9.891571    3.011456   -0.089875
     42          1           0       -7.372301    5.541144   -0.177815
     43          1           0       -5.817434    4.657605   -1.876056
     44          1           0       -5.077655    2.316626   -1.771971
     45          1           0       -5.848918   -1.445237    1.854750
     46          1           0       -7.556572   -3.201921    2.036422
     47          1           0       -9.448646   -3.258001    0.455374
     48          1           0       -9.606797   -1.547806   -1.314160
     49          1           0       -7.880087    0.190169   -1.507978
     50          1           0       -4.659844   -1.653071   -1.044242
     51          1           0       -2.299367   -2.222821   -1.096244
     52          1           0       -1.395222    1.377020    1.001802
     53          1           0       -3.748542    1.934847    1.068225
     54          1           0       -7.402179    1.731515    1.743635
     55          1           0       -8.168239    4.064129    1.629297
     56          1           0        2.548548   -5.095760   -0.488203
     57          1           0        0.046506   -5.225680   -0.449382
     58          1           0        7.746108    2.431199   -0.176794
     59          1           0        6.912724   -1.297414    0.299855
     60          1           0        4.642281   -2.092481    0.230675
     61          1           0        3.253495    1.886632   -0.446806
     62          1           0        5.528663    2.689597   -0.376229
     63          1           0       10.672076    3.559820   -0.110196
 ---------------------------------------------------------------------
 Rotational constants (GHZ):      0.1936927      0.0242660      0.0218655

 **********************************************************************

            Population analysis using the SCF density.

 **********************************************************************

 Orbital symmetries:
       Occupied  (A) (A) (A) (A) (A) (A) (A) (A) (A) (A) (A) (A)
                 (A) (A) (A) (A) (A) (A) (A) (A) (A) (A) (A) (A)
                 (A) (A) (A) (A) (A) (A) (A) (A) (A) (A) (A) (A)
                 (A) (A) (A) (A) (A) (A) (A) (A) (A) (A) (A) (A)
                 (A) (A) (A) (A) (A) (A) (A) (A) (A) (A) (A) (A)
                 (A) (A) (A) (A) (A) (A) (A) (A) (A) (A) (A) (A)
                 (A) (A) (A) (A) (A) (A) (A) (A) (A) (A) (A) (A)
                 (A) (A) (A) (A) (A) (A) (A) (A) (A) (A) (A) (A)
                 (A) (A) (A) (A) (A) (A) (A) (A) (A) (A) (A) (A)
                 (A) (A) (A) (A) (A) (A) (A) (A) (A) (A) (A) (A)
                 (A) (A) (A) (A) (A) (A) (A) (A) (A) (A) (A) (A)
                 (A) (A) (A) (A) (A) (A) (A) (A) (A) (A) (A)
       Virtual   (A) (A) (A) (A) (A) (A) (A) (A) (A) (A) (A) (A)
                 (A) (A) (A) (A) (A) (A) (A) (A) (A) (A) (A) (A)
                 (A) (A) (A) (A) (A) (A) (A) (A) (A) (A) (A) (A)
                 (A) (A) (A) (A) (A) (A) (A) (A) (A) (A) (A) (A)
                 (A) (A) (A) (A) (A) (A) (A) (A) (A) (A) (A) (A)
                 (A) (A) (A) (A) (A) (A) (A) (A) (A) (A) (A) (A)
                 (A) (A) (A) (A) (A) (A) (A) (A) (A) (A) (A) (A)
                 (A) (A) (A) (A) (A) (A) (A) (A) (A) (A) (A) (A)
                 (A) (A) (A) (A) (A) (A) (A) (A) (A) (A) (A) (A)
                 (A) (A) (A) (A) (A) (A) (A) (A) (A) (A) (A) (A)
                 (A) (A) (A) (A) (A) (A) (A) (A) (A) (A) (A) (A)
                 (A) (A) (A) (A) (A) (A) (A) (A) (A) (A) (A) (A)
                 (A) (A) (A) (A) (A) (A) (A) (A) (A) (A) (A) (A)
                 (A) (A) (A) (A) (A) (A) (A) (A) (A) (A) (A) (A)
                 (A) (A) (A) (A) (A) (A) (A) (A) (A) (A) (A) (A)
                 (A) (A) (A) (A) (A) (A) (A) (A) (A) (A) (A) (A)
                 (A) (A) (A) (A) (A) (A) (A) (A) (A) (A) (A) (A)
                 (A) (A) (A) (A) (A) (A) (A) (A) (A) (A) (A) (A)
                 (A) (A) (A) (A) (A) (A) (A) (A) (A) (A) (A) (A)
                 (A) (A) (A) (A) (A) (A) (A) (A) (A) (A) (A) (A)
                 (A) (A) (A) (A) (A) (A) (A) (A) (A) (A) (A) (A)
                 (A) (A) (A) (A) (A) (A) (A) (A) (A) (A) (A) (A)
                 (A) (A) (A) (A) (A) (A) (A) (A) (A) (A)
 The electronic state is 1-A.
 Alpha  occ. eigenvalues --  -91.99750 -20.62697 -20.57421 -15.61685 -15.61459
 Alpha  occ. eigenvalues --  -15.59473 -15.59085 -11.42623 -11.31565 -11.31552
 Alpha  occ. eigenvalues --  -11.31023 -11.30945 -11.30644 -11.30505 -11.30090
 Alpha  occ. eigenvalues --  -11.29924 -11.29817 -11.29165 -11.28925 -11.28880
 Alpha  occ. eigenvalues --  -11.28723 -11.27389 -11.26735 -11.26233 -11.25925
 Alpha  occ. eigenvalues --  -11.25739 -11.25357 -11.24803 -11.24787 -11.24516
 Alpha  occ. eigenvalues --  -11.24481 -11.24438 -11.24416 -11.24132 -11.24077
 Alpha  occ. eigenvalues --  -11.24051 -11.24050 -11.24014 -11.23976 -11.23955
 Alpha  occ. eigenvalues --  -11.23738  -9.01416  -6.69553  -6.69416  -6.69180
 Alpha  occ. eigenvalues --   -1.49664  -1.38751  -1.34310  -1.28909  -1.25713
 Alpha  occ. eigenvalues --   -1.25411  -1.20824  -1.19122  -1.17118  -1.16980
 Alpha  occ. eigenvalues --   -1.14641  -1.13889  -1.08253  -1.05676  -1.04662
 Alpha  occ. eigenvalues --   -1.04144  -1.03161  -1.02938  -1.02735  -1.02365
 Alpha  occ. eigenvalues --   -1.00804  -0.97383  -0.93563  -0.91746  -0.88337
 Alpha  occ. eigenvalues --   -0.87805  -0.86540  -0.85811  -0.85178  -0.84351
 Alpha  occ. eigenvalues --   -0.83862  -0.83117  -0.81750  -0.79919  -0.78675
 Alpha  occ. eigenvalues --   -0.75200  -0.74259  -0.73777  -0.73196  -0.72668
 Alpha  occ. eigenvalues --   -0.70978  -0.70555  -0.69306  -0.68538  -0.67369
 Alpha  occ. eigenvalues --   -0.66925  -0.65993  -0.65348  -0.65001  -0.64412
 Alpha  occ. eigenvalues --   -0.63572  -0.63429  -0.62601  -0.62486  -0.61536
 Alpha  occ. eigenvalues --   -0.61245  -0.60939  -0.60469  -0.59996  -0.59846
 Alpha  occ. eigenvalues --   -0.59690  -0.59643  -0.58905  -0.56442  -0.55263
 Alpha  occ. eigenvalues --   -0.55059  -0.54868  -0.53866  -0.52808  -0.52710
 Alpha  occ. eigenvalues --   -0.52337  -0.52135  -0.51954  -0.51416  -0.51058
 Alpha  occ. eigenvalues --   -0.50917  -0.49873  -0.49791  -0.49670  -0.48996
 Alpha  occ. eigenvalues --   -0.48544  -0.48236  -0.47709  -0.46800  -0.46315
 Alpha  occ. eigenvalues --   -0.44187  -0.42593  -0.40160  -0.37498  -0.36686
 Alpha  occ. eigenvalues --   -0.35764  -0.35626  -0.35366  -0.34728  -0.34125
 Alpha  occ. eigenvalues --   -0.33884  -0.29631  -0.25685
 Alpha virt. eigenvalues --    0.00453   0.04710   0.10652   0.11817   0.12614
 Alpha virt. eigenvalues --    0.12751   0.13247   0.14476   0.14693   0.15787
 Alpha virt. eigenvalues --    0.17566   0.18594   0.19127   0.19496   0.21595
 Alpha virt. eigenvalues --    0.22428   0.22500   0.23469   0.24043   0.24331
 Alpha virt. eigenvalues --    0.25265   0.26101   0.28471   0.28566   0.28736
 Alpha virt. eigenvalues --    0.29605   0.29833   0.30056   0.30750   0.31432
 Alpha virt. eigenvalues --    0.32294   0.32669   0.33004   0.33150   0.33320
 Alpha virt. eigenvalues --    0.33523   0.34035   0.34606   0.34645   0.34824
 Alpha virt. eigenvalues --    0.35501   0.35971   0.36910   0.38097   0.38276
 Alpha virt. eigenvalues --    0.38730   0.39762   0.39991   0.41204   0.42552
 Alpha virt. eigenvalues --    0.43685   0.44031   0.44303   0.44414   0.45425
 Alpha virt. eigenvalues --    0.46274   0.46774   0.47284   0.47416   0.47470
 Alpha virt. eigenvalues --    0.48459   0.48655   0.49178   0.50369   0.51033
 Alpha virt. eigenvalues --    0.51597   0.52557   0.53427   0.53749   0.53888
 Alpha virt. eigenvalues --    0.55071   0.56121   0.57940   0.58058   0.59762
 Alpha virt. eigenvalues --    0.60173   0.61964   0.62839   0.63477   0.64098
 Alpha virt. eigenvalues --    0.65193   0.65517   0.66891   0.67415   0.69383
 Alpha virt. eigenvalues --    0.69940   0.70530   0.72254   0.73006   0.73554
 Alpha virt. eigenvalues --    0.74058   0.74202   0.74441   0.75534   0.75746
 Alpha virt. eigenvalues --    0.75934   0.76385   0.76903   0.77138   0.77483
 Alpha virt. eigenvalues --    0.77723   0.78497   0.78795   0.78838   0.79188
 Alpha virt. eigenvalues --    0.79381   0.80136   0.80676   0.81398   0.81640
 Alpha virt. eigenvalues --    0.81745   0.82117   0.82403   0.82583   0.83260
 Alpha virt. eigenvalues --    0.83328   0.83870   0.83975   0.84629   0.85045
 Alpha virt. eigenvalues --    0.85127   0.85311   0.85500   0.85938   0.86185
 Alpha virt. eigenvalues --    0.86721   0.86867   0.87194   0.87321   0.87444
 Alpha virt. eigenvalues --    0.87829   0.88179   0.88207   0.88444   0.89192
 Alpha virt. eigenvalues --    0.89605   0.89814   0.89910   0.90319   0.90672
 Alpha virt. eigenvalues --    0.91663   0.91776   0.93700   0.93923   0.94499
 Alpha virt. eigenvalues --    0.94642   0.94818   0.95331   0.95816   0.96813
 Alpha virt. eigenvalues --    0.97864   0.98409   0.98801   1.01003   1.01652
 Alpha virt. eigenvalues --    1.02588   1.02759   1.03130   1.03633   1.05008
 Alpha virt. eigenvalues --    1.05444   1.06435   1.07124   1.07942   1.08425
 Alpha virt. eigenvalues --    1.09677   1.09967   1.10737   1.11462   1.11678
 Alpha virt. eigenvalues --    1.12743   1.13332   1.13473   1.13712   1.13844
 Alpha virt. eigenvalues --    1.13971   1.14071   1.14836   1.14985   1.15554
 Alpha virt. eigenvalues --    1.15921   1.16223   1.17082   1.17267   1.17521
 Alpha virt. eigenvalues --    1.17903   1.18328   1.19049   1.19091   1.19513
 Alpha virt. eigenvalues --    1.20315   1.20919   1.22050   1.23080   1.23673
 Alpha virt. eigenvalues --    1.24124   1.24481   1.25058   1.25514   1.26283
 Alpha virt. eigenvalues --    1.26996   1.27023   1.27586   1.28175   1.28499
 Alpha virt. eigenvalues --    1.28950   1.30353   1.30806   1.31236   1.31556
 Alpha virt. eigenvalues --    1.33704   1.34358   1.35127   1.35233   1.35772
 Alpha virt. eigenvalues --    1.36771   1.38000   1.38802   1.39484   1.40449
 Alpha virt. eigenvalues --    1.40821   1.41135   1.41952   1.42753   1.43464
 Alpha virt. eigenvalues --    1.44345   1.45060   1.45416   1.45684   1.46806
 Alpha virt. eigenvalues --    1.47420   1.47782   1.49447   1.50135   1.50848
 Alpha virt. eigenvalues --    1.52472   1.53352   1.53645   1.54685   1.55780
 Alpha virt. eigenvalues --    1.57089   1.57689   1.59805   1.60610   1.61903
 Alpha virt. eigenvalues --    1.63265   1.66009   1.67569   1.68120   1.69610
 Alpha virt. eigenvalues --    1.71798   1.72138   1.72862   1.74098   1.75653
 Alpha virt. eigenvalues --    1.76412   1.79148   1.81149   1.83652   1.84458
 Alpha virt. eigenvalues --    1.87324   1.88657   1.93118   1.95736   1.96674
 Alpha virt. eigenvalues --    1.99998   2.03421   2.15366   2.19580   2.20889
 Alpha virt. eigenvalues --    2.21994   2.28162   2.30846   2.36311
          Condensed to atoms (all electrons):
 Mulliken charges:
               1
     1  C   -0.197169
     2  C   -0.203553
     3  C   -0.185477
     4  C    0.288788
     5  N   -1.092838
     6  C    0.290641
     7  C   -0.185309
     8  C   -0.203281
     9  C   -0.197247
    10  C   -0.202268
    11  C   -0.187363
    12  C    0.374592
    13  C   -0.230669
    14  C   -0.140004
    15  C    0.002648
    16  C   -0.214224
    17  C   -0.223885
    18  C   -0.186752
    19  C   -0.202389
    20  C    0.043839
    21  C    0.020263
    22  N   -0.497124
    23  C    0.274064
    24  C   -0.469431
    25  S    0.662927
    26  C   -0.512762
    27  C    0.322770
    28  N   -0.524707
    29  N   -0.290891
    30  C    0.075090
    31  C   -0.092812
    32  C   -0.059766
    33  C   -0.038836
    34  C   -0.175019
    35  C   -0.187489
    36  C    0.067621
    37  C   -0.249650
    38  C   -0.209132
    39  C    0.783834
    40  O   -0.529580
    41  O   -0.757120
    42  H    0.202711
    43  H    0.204543
    44  H    0.222551
    45  H    0.223567
    46  H    0.204805
    47  H    0.202506
    48  H    0.204455
    49  H    0.223219
    50  H    0.229309
    51  H    0.254133
    52  H    0.227693
    53  H    0.230263
    54  H    0.223807
    55  H    0.204846
    56  H    0.229928
    57  H    0.226323
    58  H    0.271003
    59  H    0.265098
    60  H    0.280340
    61  H    0.233615
    62  H    0.223411
    63  H    0.451546
 Sum of Mulliken charges =   0.00000
 Mulliken charges with hydrogens summed into heavy atoms:
               1
     1  C    0.005542
     2  C    0.000989
     3  C    0.037074
     4  C    0.288788
     5  N   -1.092838
     6  C    0.290641
     7  C    0.038258
     8  C    0.001524
     9  C    0.005258
    10  C    0.002188
    11  C    0.035857
    12  C    0.374592
    13  C   -0.001360
    14  C    0.114129
    15  C    0.002648
    16  C    0.013469
    17  C    0.006377
    18  C    0.037055
    19  C    0.002457
    20  C    0.273766
    21  C    0.246586
    22  N   -0.497124
    23  C    0.274064
    24  C   -0.469431
    25  S    0.662927
    26  C   -0.512762
    27  C    0.322770
    28  N   -0.524707
    29  N   -0.290891
    30  C    0.075090
    31  C   -0.092812
    32  C    0.211237
    33  C   -0.038836
    34  C    0.090079
    35  C    0.092851
    36  C    0.067621
    37  C   -0.016034
    38  C    0.014279
    39  C    0.783834
    40  O   -0.529580
    41  O   -0.305574
 Electronic spatial extent (au):  <R**2>=          44155.4576
 Charge=              0.0000 electrons
 Dipole moment (field-independent basis, Debye):
    X=             -8.7428    Y=              2.9328    Z=             -1.1939  Tot=              9.2986
 Quadrupole moment (field-independent basis, Debye-Ang):
   XX=           -316.7712   YY=           -209.0580   ZZ=           -245.1388
   XY=             38.6738   XZ=            -11.7623   YZ=              0.5371
 Traceless Quadrupole moment (field-independent basis, Debye-Ang):
   XX=            -59.7819   YY=             47.9313   ZZ=             11.8506
   XY=             38.6738   XZ=            -11.7623   YZ=              0.5371
 Octapole moment (field-independent basis, Debye-Ang**2):
  XXX=          -1311.9402  YYY=             -7.1945  ZZZ=              2.5809  XYY=             37.3556
  XXY=            428.1716  XXZ=           -114.1286  XZZ=            -14.7368  YZZ=              9.8520
  YYZ=            -15.8734  XYZ=             11.9517
 Hexadecapole moment (field-independent basis, Debye-Ang**3):
 XXXX=         -66599.6903 YYYY=          -5699.4588 ZZZZ=           -715.9547 XXXY=           4797.1567
 XXXZ=          -1331.8281 YYYX=            338.4578 YYYZ=            -12.3939 ZZZX=             -1.6274
 ZZZY=            -16.0158 XXYY=          -8718.0224 XXZZ=          -9048.7037 YYZZ=          -1219.9393
 XXYZ=             62.7437 YYXZ=           -121.4932 ZZXY=             62.9782
 N-N= 4.072493840972D+03 E-N=-1.298283067622D+04  KE= 2.066172419377D+03
 1\1\GINC-N044\FOpt\RHF\6-31G\C34H22N4O2S1\R2652\19-May-2021\0\\#N HF/6
 -31G OPT\\triphenylamine::thienopyrazine::2-cyano-2-phenylacrylic acid
 \\0,1\C,0.2564780347,1.9239757888,-3.7095264451\C,0.0820470197,0.61701
 93293,-3.2760829631\C,0.7450868428,0.1586015176,-2.1481561495\C,1.6058
 205731,1.0013367807,-1.4502452312\N,2.2869669303,0.5355466382,-0.28663
 94968\C,2.1881093045,1.2966623023,0.915803795\C,3.3356483091,1.6819792
 765,1.6034066081\C,3.2339769576,2.4259624659,2.7687803073\C,1.98985351
 38,2.8081761333,3.2508576225\C,0.8457963917,2.4334273018,2.5611474831\
 C,0.9415222805,1.6753160637,1.4038896458\C,3.0454475972,-0.6506636127,
 -0.3261030596\C,3.1406708398,-1.479258087,0.79347796\C,3.8878165162,-2
 .6402800883,0.7571937343\C,4.565686335,-3.0276126384,-0.4027970564\C,4
 .4609888711,-2.1953104606,-1.5202586041\C,3.7233073483,-1.0289972575,-
 1.4863254633\C,1.7840405063,2.3092597711,-1.8896625078\C,1.1061406724,
 2.7680992091,-3.009122892\C,7.2608706225,-6.6061585617,2.25211199\C,6.
 569490295,-5.411381836,2.6943957025\N,5.9465734854,-4.6427362757,1.874
 7309975\C,5.9487307789,-4.9828642362,0.5322768683\C,5.341927725,-4.263
 8998754,-0.4568032314\S,5.630643632,-5.0880460505,-2.0157833876\C,6.59
 68539882,-6.3976318735,-1.2541352187\C,6.6472799151,-6.1654714295,0.08
 80963251\N,7.2989900855,-6.9631577129,1.0182544814\N,11.0615549948,-11
 .9405067862,-2.2937549794\C,10.4557573952,-11.7492059206,-3.2491076673
 \C,9.7006586631,-11.5087636611,-4.4375344382\C,8.772237221,-10.5428776
 31,-4.5809339019\C,8.2734338593,-9.5222803737,-3.667253549\C,8.6837754
 781,-9.3380958197,-2.3422655573\C,8.1446061334,-8.3348362385,-1.562152
 7548\C,7.1662968287,-7.4688888732,-2.0693499259\C,6.7536711886,-7.6543
 254004,-3.3933062528\C,7.2959309174,-8.6559929102,-4.1691221647\C,10.0
 094498889,-12.4183582911,-5.5518990913\O,10.8268734876,-13.3123657866,
 -5.512326552\O,9.2850297317,-12.1747015238,-6.6703065844\H,-0.26284810
 02,2.2790238438,-4.5783769028\H,-0.5777183191,-0.0421256096,-3.8067594
 591\H,0.6003603811,-0.8474051485,-1.8062726803\H,4.2977813116,1.397007
 7091,1.2254355971\H,4.1254243353,2.7152652726,3.2912323333\H,1.9136060
 812,3.3897779689,4.1489575923\H,-0.1210763443,2.7216329577,2.926385942
 \H,0.05684496,1.3788921953,0.8757652294\H,2.6214097086,-1.216969129,1.
 6925030553\H,3.9442023218,-3.2530412583,1.6308346428\H,4.9834903483,-2
 .4423086604,-2.4238826587\H,3.6796149924,-0.4054107117,-2.3556718228\H
 ,2.4466560753,2.9593187832,-1.3531763716\H,1.2496420204,3.7796533878,-
 3.3369139025\H,7.7625349474,-7.2216708168,2.9710165068\H,6.5733939195,
 -5.1519896266,3.7332269608\H,8.3128337399,-10.5175548503,-5.5496081985
 \H,9.4266325447,-9.9693618942,-1.9049935238\H,8.4719831659,-8.22260109
 ,-0.5524776104\H,5.9994140889,-7.0238146408,-3.819029845\H,6.955137231
 7,-8.7728391962,-5.180511201\H,9.4928594302,-12.7699228524,-7.38642207
 85\\Version=ES64L-G09RevD.01\State=1-A\HF=-2064.6454386\RMSD=7.234e-09
 \RMSF=1.972e-06\Dipole=-2.4675081,2.6987604,-0.1072101\Quadrupole=-18.
 3957578,-24.1220082,42.517766,33.4233219,5.777428,7.0967984\PG=C01 [X(
 C34H22N4O2S1)]\\@


 BETTER TO HUNT IN FIELDS, FOR HEALTH UNBOUGHT
 THAN FEE THE DOCTOR FOR A NAUSEOUS DRAUGHT.
 THE WISE, FOR CURE, ON EXERCISE DEPEND;
 GOD NEVER MADE HIS WORK FOR MAN TO MEND.
     -- JOHN DRYDEN (1631-1700)
 Job cpu time:       0 days  2 hours 19 minutes 58.4 seconds.
 File lengths (MBytes):  RWF=    111 Int=      0 D2E=      0 Chk=     15 Scr=      1
 Normal termination of Gaussian 09 at Wed May 19 20:17:38 2021.
