 Entering Gaussian System, Link 0=g16
 Input=ES.com
 Output=ES.out
 Initial command:
 /usr/local/apps/gaussian/g16-b01-avx2//g16/l1.exe "/tmp/r2532.896545.maple/Gau-34425.inp" -scrdir="/tmp/r2532.896545.maple/"
 Entering Link 1 = /usr/local/apps/gaussian/g16-b01-avx2//g16/l1.exe PID=     34426.
  
 Copyright (c) 1988-2017, Gaussian, Inc.  All Rights Reserved.
  
 This is part of the Gaussian(R) 16 program.  It is based on
 the Gaussian(R) 09 system (copyright 2009, Gaussian, Inc.),
 the Gaussian(R) 03 system (copyright 2003, Gaussian, Inc.),
 the Gaussian(R) 98 system (copyright 1998, Gaussian, Inc.),
 the Gaussian(R) 94 system (copyright 1995, Gaussian, Inc.),
 the Gaussian 92(TM) system (copyright 1992, Gaussian, Inc.),
 the Gaussian 90(TM) system (copyright 1990, Gaussian, Inc.),
 the Gaussian 88(TM) system (copyright 1988, Gaussian, Inc.),
 the Gaussian 86(TM) system (copyright 1986, Carnegie Mellon
 University), and the Gaussian 82(TM) system (copyright 1983,
 Carnegie Mellon University). Gaussian is a federally registered
 trademark of Gaussian, Inc.
  
 This software contains proprietary and confidential information,
 including trade secrets, belonging to Gaussian, Inc.
  
 This software is provided under written license and may be
 used, copied, transmitted, or stored only in accord with that
 written license.
  
 The following legend is applicable only to US Government
 contracts under FAR:
  
                    RESTRICTED RIGHTS LEGEND
  
 Use, reproduction and disclosure by the US Government is
 subject to restrictions as set forth in subparagraphs (a)
 and (c) of the Commercial Computer Software - Restricted
 Rights clause in FAR 52.227-19.
  
 Gaussian, Inc.
 340 Quinnipiac St., Bldg. 40, Wallingford CT 06492
  
  
 ---------------------------------------------------------------
 Warning -- This program may not be used in any manner that
 competes with the business of Gaussian, Inc. or will provide
 assistance to any competitor of Gaussian, Inc.  The licensee
 of this program is prohibited from giving any competitor of
 Gaussian, Inc. access to this program.  By using this program,
 the user acknowledges that Gaussian, Inc. is engaged in the
 business of creating and licensing software in the field of
 computational chemistry and represents and warrants to the
 licensee that it is not a competitor of Gaussian, Inc. and that
 it will not use this program in any manner prohibited above.
 ---------------------------------------------------------------
  

 Cite this work as:
 Gaussian 16, Revision B.01,
 M. J. Frisch, G. W. Trucks, H. B. Schlegel, G. E. Scuseria, 
 M. A. Robb, J. R. Cheeseman, G. Scalmani, V. Barone, 
 G. A. Petersson, H. Nakatsuji, X. Li, M. Caricato, A. V. Marenich, 
 J. Bloino, B. G. Janesko, R. Gomperts, B. Mennucci, H. P. Hratchian, 
 J. V. Ortiz, A. F. Izmaylov, J. L. Sonnenberg, D. Williams-Young, 
 F. Ding, F. Lipparini, F. Egidi, J. Goings, B. Peng, A. Petrone, 
 T. Henderson, D. Ranasinghe, V. G. Zakrzewski, J. Gao, N. Rega, 
 G. Zheng, W. Liang, M. Hada, M. Ehara, K. Toyota, R. Fukuda, 
 J. Hasegawa, M. Ishida, T. Nakajima, Y. Honda, O. Kitao, H. Nakai, 
 T. Vreven, K. Throssell, J. A. Montgomery, Jr., J. E. Peralta, 
 F. Ogliaro, M. J. Bearpark, J. J. Heyd, E. N. Brothers, K. N. Kudin, 
 V. N. Staroverov, T. A. Keith, R. Kobayashi, J. Normand, 
 K. Raghavachari, A. P. Rendell, J. C. Burant, S. S. Iyengar, 
 J. Tomasi, M. Cossi, J. M. Millam, M. Klene, C. Adamo, R. Cammi, 
 J. W. Ochterski, R. L. Martin, K. Morokuma, O. Farkas, 
 J. B. Foresman, and D. J. Fox, Gaussian, Inc., Wallingford CT, 2016.
 
 ******************************************
 Gaussian 16:  ES64L-G16RevB.01 20-Dec-2017
                19-Jul-2021 
 ******************************************
 %mem=8gb
 ---------------------------------------
 #N TD(NStates=10) CAM-B3lYP/6-311G(d,p)
 ---------------------------------------
 1/38=1,172=1/1;
 2/12=2,17=6,18=5,40=1/2;
 3/5=4,6=6,7=101,11=9,25=1,30=1,74=-40/1,2,3,8;
 4//1;
 5/5=2,38=5/2;
 8/6=1,10=2,108=10/1;
 9/41=10,42=1,70=2/14;
 6/7=2,8=2,9=2,10=2/1;
 99/5=1,9=1/99;
 ----
 Name
 ----
 Symbolic Z-matrix:
 Charge =  0 Multiplicity = 1
 6                     9.5725   -2.62523   0.62271 
 6                     8.2392   -1.99121   0.35022 
 6                     8.06603  -0.66294  -0.00605 
 6                     9.03782   0.32914  -0.17826 
 6                     9.86885   1.20097  -0.33079 
 6                     10.8329   2.22342  -0.50932 
 6                     12.20195   1.9677   -0.30226 
 6                     13.13853   2.97638  -0.47022 
 6                     12.74402   4.26584  -0.84965 
 6                     13.70758   5.39119  -1.06715 
 8                     14.93627   5.26223  -0.49615 
 8                     13.44419   6.37285  -1.70743 
 6                     11.38574   4.51592  -1.08171 
 6                     10.44207   3.51912  -0.90626 
 16                    6.36749  -0.28538  -0.24734 
 6                     5.89285  -1.9317    0.13665 
 6                     4.49124  -2.32139   0.1194 
 6                     4.04509  -3.65657   0.42664 
 7                     4.82644  -4.68532   0.75755 
 16                    3.85537  -5.97972   1.00854 
 7                     2.40487  -5.28468   0.70738 
 6                     2.6281   -4.0073    0.39765 
 6                     3.47795  -1.43111  -0.19556 
 6                     2.11015  -1.76821  -0.22197 
 6                     1.61851  -3.03237   0.06283 
 6                     0.20027  -3.34431   0.02462 
 16                   -0.97855  -2.12458  -0.43767 
 6                    -0.45156  -4.52433   0.30865 
 6                    -1.86619  -4.4749    0.17942 
 6                    -2.73928  -5.66067   0.49772 
 6                    -2.31771  -3.23073  -0.21512 
 6                    -3.68906  -2.75715  -0.45738 
 6                    -4.58901  -3.54093  -1.20935 
 6                    -5.86765  -3.088    -1.50146 
 6                    -4.10576  -1.51063   0.03162 
 6                    -5.40386  -1.04761  -0.20312 
 6                    -6.25396  -1.83822  -1.02025 
 7                    -7.43511  -1.1575   -1.24989 
 6                    -8.63413  -1.83318  -1.718 
 6                    -7.3604    0.08968  -0.63298 
 6                    -6.1563    0.15514   0.11854 
 6                    -5.98775   1.26729   0.98134 
 6                    -6.8834    2.36986   0.96418 
 6                    -6.49747   3.2426    2.05957 
 6                    -7.03365   4.38499   2.67285 
 6                    -6.40122   4.94079   3.77876 
 6                    -5.23577   4.37053   4.30475 
 6                    -4.70406   3.2118    3.75152 
 6                    -5.35133   2.65175   2.64938 
 7                    -5.06199   1.4593    1.99983 
 6                    -4.20769   0.45085   2.60595 
 6                    -7.92181   2.35898   0.00255 
 6                    -8.22028   1.20574  -0.77182 
 6                    -9.31296   1.57115  -1.66165 
 6                    -9.63289   2.91954  -1.35738 
 7                    -8.77944   3.38623  -0.36777 
 6                    -8.56798   4.81051  -0.16123 
 6                    -10.62897   3.62745  -2.02964 
 6                    -11.3144   2.98271  -3.05224 
 6                    -10.99146   1.66699  -3.40255 
 6                    -9.99978   0.96621  -2.72494 
 6                     7.0098   -2.68961   0.42596 
 1                     10.38157  -1.89943   0.53691 
 1                     9.768    -3.43863  -0.08288 
 1                     9.60165  -3.05317   1.62929 
 1                     12.51897   0.97214  -0.01807 
 1                     14.18771   2.73116  -0.3374 
 1                     14.94314   4.51706   0.11506 
 1                     11.09245   5.50842  -1.4 
 1                     9.39265   3.72473  -1.07693 
 1                     3.73492  -0.40658  -0.43918 
 1                     1.41376  -0.9798   -0.48209 
 1                     0.08212  -5.40866   0.62276 
 1                    -2.32667  -6.21982   1.34121 
 1                    -2.80337  -6.35344  -0.34856 
 1                    -3.75476  -5.35637   0.75449 
 1                    -4.25693  -4.48789  -1.61491 
 1                    -6.52702  -3.67829  -2.12619 
 1                    -3.39725  -0.91679   0.58884 
 1                    -8.66931  -1.90331  -2.80927 
 1                    -9.51444  -1.30497  -1.36147 
 1                    -8.65675  -2.84503  -1.30622 
 1                    -7.95181   4.8295    2.31887 
 1                    -6.82251   5.8243    4.24443 
 1                    -4.74991   4.82635   5.1597 
 1                    -3.81172   2.76169   4.16888 
 1                    -4.59877  -0.54091   2.39454 
 1                    -4.21029   0.58897   3.68816 
 1                    -3.17455   0.51586   2.25187 
 1                    -7.54978   4.98561   0.17489 
 1                    -9.26655   5.22959   0.56917 
 1                    -8.70652   5.33277  -1.11047 
 1                    -10.86652   4.65034  -1.76388 
 1                    -12.09627   3.50839  -3.58806 
 1                    -11.51669   1.18633  -4.21993 
 1                    -9.7604   -0.03377  -3.05074 
 1                     6.93536  -3.73388   0.68851 
 
 Stoichiometry    C52H35N5O2S3
 Framework group  C1[X(C52H35N5O2S3)]
 Deg. of freedom   285
 Full point group                 C1      NOp   1
 Largest Abelian subgroup         C1      NOp   1
 Largest concise Abelian subgroup C1      NOp   1
                         Standard orientation:                         
 ---------------------------------------------------------------------
 Center     Atomic      Atomic             Coordinates (Angstroms)
 Number     Number       Type             X           Y           Z
 ---------------------------------------------------------------------
      1          6           0        9.572500   -2.625230    0.622714
      2          6           0        8.239196   -1.991206    0.350223
      3          6           0        8.066035   -0.662939   -0.006048
      4          6           0        9.037824    0.329136   -0.178257
      5          6           0        9.868849    1.200972   -0.330786
      6          6           0       10.832902    2.223419   -0.509322
      7          6           0       12.201950    1.967704   -0.302263
      8          6           0       13.138535    2.976377   -0.470222
      9          6           0       12.744022    4.265838   -0.849649
     10          6           0       13.707576    5.391186   -1.067154
     11          8           0       14.936269    5.262229   -0.496154
     12          8           0       13.444192    6.372847   -1.707431
     13          6           0       11.385741    4.515923   -1.081711
     14          6           0       10.442067    3.519119   -0.906263
     15         16           0        6.367486   -0.285381   -0.247341
     16          6           0        5.892851   -1.931697    0.136652
     17          6           0        4.491240   -2.321388    0.119400
     18          6           0        4.045086   -3.656567    0.426643
     19          7           0        4.826441   -4.685318    0.757553
     20         16           0        3.855372   -5.979721    1.008542
     21          7           0        2.404868   -5.284678    0.707382
     22          6           0        2.628103   -4.007303    0.397647
     23          6           0        3.477946   -1.431110   -0.195564
     24          6           0        2.110145   -1.768213   -0.221970
     25          6           0        1.618507   -3.032369    0.062827
     26          6           0        0.200274   -3.344310    0.024624
     27         16           0       -0.978552   -2.124581   -0.437665
     28          6           0       -0.451555   -4.524327    0.308653
     29          6           0       -1.866186   -4.474899    0.179422
     30          6           0       -2.739275   -5.660670    0.497717
     31          6           0       -2.317711   -3.230734   -0.215118
     32          6           0       -3.689063   -2.757154   -0.457375
     33          6           0       -4.589015   -3.540927   -1.209351
     34          6           0       -5.867652   -3.088000   -1.501455
     35          6           0       -4.105764   -1.510631    0.031617
     36          6           0       -5.403856   -1.047611   -0.203123
     37          6           0       -6.253955   -1.838216   -1.020255
     38          7           0       -7.435109   -1.157498   -1.249887
     39          6           0       -8.634127   -1.833175   -1.718003
     40          6           0       -7.360400    0.089678   -0.632982
     41          6           0       -6.156296    0.155140    0.118542
     42          6           0       -5.987749    1.267289    0.981336
     43          6           0       -6.883402    2.369861    0.964180
     44          6           0       -6.497472    3.242595    2.059568
     45          6           0       -7.033648    4.384988    2.672851
     46          6           0       -6.401217    4.940793    3.778761
     47          6           0       -5.235774    4.370533    4.304751
     48          6           0       -4.704060    3.211801    3.751516
     49          6           0       -5.351325    2.651750    2.649384
     50          7           0       -5.061991    1.459295    1.999834
     51          6           0       -4.207686    0.450846    2.605945
     52          6           0       -7.921813    2.358980    0.002547
     53          6           0       -8.220281    1.205743   -0.771821
     54          6           0       -9.312962    1.571147   -1.661645
     55          6           0       -9.632895    2.919542   -1.357383
     56          7           0       -8.779443    3.386228   -0.367765
     57          6           0       -8.567981    4.810508   -0.161228
     58          6           0      -10.628968    3.627450   -2.029638
     59          6           0      -11.314396    2.982705   -3.052244
     60          6           0      -10.991458    1.666990   -3.402555
     61          6           0       -9.999776    0.966209   -2.724938
     62          6           0        7.009795   -2.689606    0.425960
     63          1           0       10.381571   -1.899431    0.536912
     64          1           0        9.767996   -3.438633   -0.082877
     65          1           0        9.601650   -3.053173    1.629290
     66          1           0       12.518966    0.972137   -0.018074
     67          1           0       14.187707    2.731158   -0.337395
     68          1           0       14.943136    4.517058    0.115055
     69          1           0       11.092449    5.508422   -1.400004
     70          1           0        9.392654    3.724733   -1.076925
     71          1           0        3.734918   -0.406575   -0.439178
     72          1           0        1.413764   -0.979800   -0.482094
     73          1           0        0.082118   -5.408663    0.622755
     74          1           0       -2.326673   -6.219817    1.341206
     75          1           0       -2.803366   -6.353436   -0.348561
     76          1           0       -3.754757   -5.356365    0.754493
     77          1           0       -4.256931   -4.487894   -1.614906
     78          1           0       -6.527019   -3.678286   -2.126191
     79          1           0       -3.397248   -0.916793    0.588840
     80          1           0       -8.669310   -1.903308   -2.809266
     81          1           0       -9.514439   -1.304965   -1.361471
     82          1           0       -8.656745   -2.845031   -1.306219
     83          1           0       -7.951805    4.829499    2.318867
     84          1           0       -6.822509    5.824297    4.244431
     85          1           0       -4.749911    4.826352    5.159705
     86          1           0       -3.811723    2.761687    4.168884
     87          1           0       -4.598775   -0.540911    2.394537
     88          1           0       -4.210287    0.588970    3.688162
     89          1           0       -3.174548    0.515860    2.251874
     90          1           0       -7.549779    4.985612    0.174886
     91          1           0       -9.266547    5.229593    0.569169
     92          1           0       -8.706522    5.332766   -1.110468
     93          1           0      -10.866518    4.650342   -1.763883
     94          1           0      -12.096272    3.508388   -3.588056
     95          1           0      -11.516694    1.186325   -4.219928
     96          1           0       -9.760401   -0.033771   -3.050741
     97          1           0        6.935361   -3.733875    0.688510
 ---------------------------------------------------------------------
 Rotational constants (GHZ):           0.0447281           0.0097132           0.0084800
 Standard basis: 6-311G(d,p) (5D, 7F)
 There are  1412 symmetry adapted cartesian basis functions of A   symmetry.
 There are  1350 symmetry adapted basis functions of A   symmetry.
  1350 basis functions,  2306 primitive gaussians,  1412 cartesian basis functions
   223 alpha electrons      223 beta electrons
       nuclear repulsion energy      7962.1390283546 Hartrees.
 NAtoms=   97 NActive=   97 NUniq=   97 SFac= 1.00D+00 NAtFMM=   60 NAOKFM=T Big=T
 Integral buffers will be    131072 words long.
 Raffenetti 1 integral format.
 Two-electron integral symmetry is turned on.
 One-electron integrals computed using PRISM.
 NBasis=  1350 RedAO= T EigKep=  1.60D-05  NBF=  1350
 NBsUse=  1350 1.00D-06 EigRej= -1.00D+00 NBFU=  1350
 ExpMin= 7.71D-02 ExpMax= 9.34D+04 ExpMxC= 3.17D+03 IAcc=3 IRadAn=         5 AccDes= 0.00D+00
 Harris functional with IExCor=20419 and IRadAn=       5 diagonalized for initial guess.
 HarFok:  IExCor=20419 AccDes= 0.00D+00 IRadAn=         5 IDoV= 1 UseB2=F ITyADJ=14
 ICtDFT=  3500011 ScaDFX=  1.000000  1.000000  1.000000  1.000000
 FoFCou: FMM=F IPFlag=           0 FMFlag=      100000 FMFlg1=        2001
         NFxFlg=           0 DoJE=T BraDBF=F KetDBF=T FulRan=T
         wScrn=  0.000000 ICntrl=       500 IOpCl=  0 I1Cent=   200000004 NGrid=           0
         NMat0=    1 NMatS0=      1 NMatT0=    0 NMatD0=    1 NMtDS0=    0 NMtDT0=    0
 Petite list used in FoFCou.
 Requested convergence on RMS density matrix=1.00D-08 within 128 cycles.
 Requested convergence on MAX density matrix=1.00D-06.
 Requested convergence on             energy=1.00D-06.
 No special actions if energy rises.
 Integral accuracy reduced to 1.0D-05 until final iterations.
 Initial convergence to 1.0D-05 achieved.  Increase integral accuracy.
 SCF Done:  E(RCAM-B3LYP) =  -3620.70070480     A.U. after   19 cycles
            NFock= 19  Conv=0.36D-08     -V/T= 2.0028
 DoSCS=F DFT=T ScalE2(SS,OS)=  1.000000  1.000000
 ExpMin= 7.71D-02 ExpMax= 9.34D+04 ExpMxC= 3.17D+03 IAcc=3 IRadAn=         5 AccDes= 0.00D+00
 HarFok:  IExCor=  205 AccDes= 0.00D+00 IRadAn=         5 IDoV=-2 UseB2=F ITyADJ=14
 ICtDFT= 12500011 ScaDFX=  1.000000  1.000000  1.000000  1.000000
 GSVD:  LWork=       -6068 too small for GESVD, short by       28490 words or       28490 for optimal perf.
 Range of M.O.s used for correlation:    75  1350
 NBasis=  1350 NAE=   223 NBE=   223 NFC=    74 NFV=     0
 NROrb=   1276 NOA=   149 NOB=   149 NVA=  1127 NVB=  1127

 **** Warning!!: The largest alpha MO coefficient is  0.24349078D+02

 Orbital symmetries:
       Occupied  (A) (A) (A) (A) (A) (A) (A) (A) (A) (A) (A) (A)
                 (A) (A) (A) (A) (A) (A) (A) (A) (A) (A) (A) (A)
                 (A) (A) (A) (A) (A) (A) (A) (A) (A) (A) (A) (A)
                 (A) (A) (A) (A) (A) (A) (A) (A) (A) (A) (A) (A)
                 (A) (A) (A) (A) (A) (A) (A) (A) (A) (A) (A) (A)
                 (A) (A) (A) (A) (A) (A) (A) (A) (A) (A) (A) (A)
                 (A) (A) (A) (A) (A) (A) (A) (A) (A) (A) (A) (A)
                 (A) (A) (A) (A) (A) (A) (A) (A) (A) (A) (A) (A)
                 (A) (A) (A) (A) (A) (A) (A) (A) (A) (A) (A) (A)
                 (A) (A) (A) (A) (A) (A) (A) (A) (A) (A) (A) (A)
                 (A) (A) (A) (A) (A) (A) (A) (A) (A) (A) (A) (A)
                 (A) (A) (A) (A) (A) (A) (A) (A) (A) (A) (A) (A)
                 (A) (A) (A) (A) (A) (A) (A) (A) (A) (A) (A) (A)
                 (A) (A) (A) (A) (A) (A) (A) (A) (A) (A) (A) (A)
                 (A) (A) (A) (A) (A) (A) (A) (A) (A) (A) (A) (A)
                 (A) (A) (A) (A) (A) (A) (A) (A) (A) (A) (A) (A)
                 (A) (A) (A) (A) (A) (A) (A) (A) (A) (A) (A) (A)
                 (A) (A) (A) (A) (A) (A) (A) (A) (A) (A) (A) (A)
                 (A) (A) (A) (A) (A) (A) (A)
       Virtual   (A) (A) (A) (A) (A) (A) (A) (A) (A) (A) (A) (A)
                 (A) (A) (A) (A) (A) (A) (A) (A) (A) (A) (A) (A)
                 (A) (A) (A) (A) (A) (A) (A) (A) (A) (A) (A) (A)
                 (A) (A) (A) (A) (A) (A) (A) (A) (A) (A) (A) (A)
                 (A) (A) (A) (A) (A) (A) (A) (A) (A) (A) (A) (A)
                 (A) (A) (A) (A) (A) (A) (A) (A) (A) (A) (A) (A)
                 (A) (A) (A) (A) (A) (A) (A) (A) (A) (A) (A) (A)
                 (A) (A) (A) (A) (A) (A) (A) (A) (A) (A) (A) (A)
                 (A) (A) (A) (A) (A) (A) (A) (A) (A) (A) (A) (A)
                 (A) (A) (A) (A) (A) (A) (A) (A) (A) (A) (A) (A)
                 (A) (A) (A) (A) (A) (A) (A) (A) (A) (A) (A) (A)
                 (A) (A) (A) (A) (A) (A) (A) (A) (A) (A) (A) (A)
                 (A) (A) (A) (A) (A) (A) (A) (A) (A) (A) (A) (A)
                 (A) (A) (A) (A) (A) (A) (A) (A) (A) (A) (A) (A)
                 (A) (A) (A) (A) (A) (A) (A) (A) (A) (A) (A) (A)
                 (A) (A) (A) (A) (A) (A) (A) (A) (A) (A) (A) (A)
                 (A) (A) (A) (A) (A) (A) (A) (A) (A) (A) (A) (A)
                 (A) (A) (A) (A) (A) (A) (A) (A) (A) (A) (A) (A)
                 (A) (A) (A) (A) (A) (A) (A) (A) (A) (A) (A) (A)
                 (A) (A) (A) (A) (A) (A) (A) (A) (A) (A) (A) (A)
                 (A) (A) (A) (A) (A) (A) (A) (A) (A) (A) (A) (A)
                 (A) (A) (A) (A) (A) (A) (A) (A) (A) (A) (A) (A)
                 (A) (A) (A) (A) (A) (A) (A) (A) (A) (A) (A) (A)
                 (A) (A) (A) (A) (A) (A) (A) (A) (A) (A) (A) (A)
                 (A) (A) (A) (A) (A) (A) (A) (A) (A) (A) (A) (A)
                 (A) (A) (A) (A) (A) (A) (A) (A) (A) (A) (A) (A)
                 (A) (A) (A) (A) (A) (A) (A) (A) (A) (A) (A) (A)
                 (A) (A) (A) (A) (A) (A) (A) (A) (A) (A) (A) (A)
                 (A) (A) (A) (A) (A) (A) (A) (A) (A) (A) (A) (A)
                 (A) (A) (A) (A) (A) (A) (A) (A) (A) (A) (A) (A)
                 (A) (A) (A) (A) (A) (A) (A) (A) (A) (A) (A) (A)
                 (A) (A) (A) (A) (A) (A) (A) (A) (A) (A) (A) (A)
                 (A) (A) (A) (A) (A) (A) (A) (A) (A) (A) (A) (A)
                 (A) (A) (A) (A) (A) (A) (A) (A) (A) (A) (A) (A)
                 (A) (A) (A) (A) (A) (A) (A) (A) (A) (A) (A) (A)
                 (A) (A) (A) (A) (A) (A) (A) (A) (A) (A) (A) (A)
                 (A) (A) (A) (A) (A) (A) (A) (A) (A) (A) (A) (A)
                 (A) (A) (A) (A) (A) (A) (A) (A) (A) (A) (A) (A)
                 (A) (A) (A) (A) (A) (A) (A) (A) (A) (A) (A) (A)
                 (A) (A) (A) (A) (A) (A) (A) (A) (A) (A) (A) (A)
                 (A) (A) (A) (A) (A) (A) (A) (A) (A) (A) (A) (A)
                 (A) (A) (A) (A) (A) (A) (A) (A) (A) (A) (A) (A)
                 (A) (A) (A) (A) (A) (A) (A) (A) (A) (A) (A) (A)
                 (A) (A) (A) (A) (A) (A) (A) (A) (A) (A) (A) (A)
                 (A) (A) (A) (A) (A) (A) (A) (A) (A) (A) (A) (A)
                 (A) (A) (A) (A) (A) (A) (A) (A) (A) (A) (A) (A)
                 (A) (A) (A) (A) (A) (A) (A) (A) (A) (A) (A) (A)
                 (A) (A) (A) (A) (A) (A) (A) (A) (A) (A) (A) (A)
                 (A) (A) (A) (A) (A) (A) (A) (A) (A) (A) (A) (A)
                 (A) (A) (A) (A) (A) (A) (A) (A) (A) (A) (A) (A)
                 (A) (A) (A) (A) (A) (A) (A) (A) (A) (A) (A) (A)
                 (A) (A) (A) (A) (A) (A) (A) (A) (A) (A) (A) (A)
                 (A) (A) (A) (A) (A) (A) (A) (A) (A) (A) (A) (A)
                 (A) (A) (A) (A) (A) (A) (A) (A) (A) (A) (A) (A)
                 (A) (A) (A) (A) (A) (A) (A) (A) (A) (A) (A) (A)
                 (A) (A) (A) (A) (A) (A) (A) (A) (A) (A) (A) (A)
                 (A) (A) (A) (A) (A) (A) (A) (A) (A) (A) (A) (A)
                 (A) (A) (A) (A) (A) (A) (A) (A) (A) (A) (A) (A)
                 (A) (A) (A) (A) (A) (A) (A) (A) (A) (A) (A) (A)
                 (A) (A) (A) (A) (A) (A) (A) (A) (A) (A) (A) (A)
                 (A) (A) (A) (A) (A) (A) (A) (A) (A) (A) (A) (A)
                 (A) (A) (A) (A) (A) (A) (A) (A) (A) (A) (A) (A)
                 (A) (A) (A) (A) (A) (A) (A) (A) (A) (A) (A) (A)
                 (A) (A) (A) (A) (A) (A) (A) (A) (A) (A) (A) (A)
                 (A) (A) (A) (A) (A) (A) (A) (A) (A) (A) (A) (A)
                 (A) (A) (A) (A) (A) (A) (A) (A) (A) (A) (A) (A)
                 (A) (A) (A) (A) (A) (A) (A) (A) (A) (A) (A) (A)
                 (A) (A) (A) (A) (A) (A) (A) (A) (A) (A) (A) (A)
                 (A) (A) (A) (A) (A) (A) (A) (A) (A) (A) (A) (A)
                 (A) (A) (A) (A) (A) (A) (A) (A) (A) (A) (A) (A)
                 (A) (A) (A) (A) (A) (A) (A) (A) (A) (A) (A) (A)
                 (A) (A) (A) (A) (A) (A) (A) (A) (A) (A) (A) (A)
                 (A) (A) (A) (A) (A) (A) (A) (A) (A) (A) (A) (A)
                 (A) (A) (A) (A) (A) (A) (A) (A) (A) (A) (A) (A)
                 (A) (A) (A) (A) (A) (A) (A) (A) (A) (A) (A) (A)
                 (A) (A) (A) (A) (A) (A) (A) (A) (A) (A) (A) (A)
                 (A) (A) (A) (A) (A) (A) (A) (A) (A) (A) (A) (A)
                 (A) (A) (A) (A) (A) (A) (A) (A) (A) (A) (A) (A)
                 (A) (A) (A) (A) (A) (A) (A) (A) (A) (A) (A) (A)
                 (A) (A) (A) (A) (A) (A) (A) (A) (A) (A) (A) (A)
                 (A) (A) (A) (A) (A) (A) (A) (A) (A) (A) (A) (A)
                 (A) (A) (A) (A) (A) (A) (A) (A) (A) (A) (A) (A)
                 (A) (A) (A) (A) (A) (A) (A) (A) (A) (A) (A) (A)
                 (A) (A) (A) (A) (A) (A) (A) (A) (A) (A) (A) (A)
                 (A) (A) (A) (A) (A) (A) (A) (A) (A) (A) (A) (A)
                 (A) (A) (A) (A) (A) (A) (A) (A) (A) (A) (A) (A)
                 (A) (A) (A) (A) (A) (A) (A) (A) (A) (A) (A) (A)
                 (A) (A) (A) (A) (A) (A) (A) (A) (A) (A) (A) (A)
                 (A) (A) (A) (A) (A) (A) (A) (A) (A) (A) (A) (A)
                 (A) (A) (A) (A) (A) (A) (A) (A) (A) (A) (A) (A)
                 (A) (A) (A) (A) (A) (A) (A) (A) (A) (A) (A) (A)
                 (A) (A) (A) (A) (A) (A) (A) (A) (A) (A) (A) (A)
                 (A) (A) (A) (A) (A) (A) (A) (A) (A) (A) (A) (A)
                 (A) (A) (A) (A) (A) (A) (A) (A) (A) (A) (A)
    40 initial guesses have been made.
 Convergence on wavefunction:    0.001000000000000
 Iteration     1 Dimension    40 NMult     0 NNew     40
 CISAX will form    40 AO SS matrices at one time.
 New state      4 was old state      5
 New state      5 was old state      7
 New state      6 was old state     16
 New state      7 was old state     15
 New state      8 was old state     10
 New state      9 was old state     20
 New state     10 was old state      8
 Iteration     2 Dimension    60 NMult    40 NNew     20
 New state      2 was old state      3
 New state      3 was old state      2
 New state      4 was old state      5
 New state      5 was old state      4
 New state      7 was old state      8
 New state      8 was old state      9
 New state      9 was old state      7
 Iteration     3 Dimension    80 NMult    60 NNew     20
 Iteration     4 Dimension   100 NMult    80 NNew     20
 Iteration     5 Dimension   120 NMult   100 NNew     20
 Iteration     6 Dimension   138 NMult   120 NNew     18
 Iteration     7 Dimension   148 NMult   138 NNew     10
 Iteration     8 Dimension   154 NMult   148 NNew      6
 Iteration     9 Dimension   156 NMult   154 NNew      2
 Iteration    10 Dimension   158 NMult   156 NNew      2
 ***********************************************************************
 Excited states from <AA,BB:AA,BB> singles matrix:
 ***********************************************************************
 
 Ground to excited state transition densities written to RWF  633
 Ground to excited state transition electric dipole moments (Au):
       state          X           Y           Z        Dip. S.      Osc.
         1        -4.3567     -0.8930      0.0697     19.7828      1.2051
         2         0.3837      1.5295     -0.2155      2.5330      0.2102
         3        -0.3054     -0.5533     -0.0372      0.4008      0.0341
         4         2.2383      1.5008     -0.3236      7.3672      0.6488
         5        -1.3783      0.2245     -0.0289      1.9509      0.1824
         6         0.2936     -0.5071     -0.0599      0.3469      0.0331
         7        -0.2784      0.3799      0.0224      0.2223      0.0221
         8        -1.6350      1.7678      0.0615      5.8022      0.5916
         9        -0.3469      0.7076     -0.0778      0.6271      0.0646
        10        -0.5700      0.9324      0.3698      1.3310      0.1413
 Ground to excited state transition velocity dipole moments (Au):
       state          X           Y           Z        Dip. S.      Osc.
         1         0.4014      0.0819     -0.0060      0.1678      1.2245
         2        -0.0485     -0.1872      0.0259      0.0381      0.2039
         3         0.0384      0.0706      0.0052      0.0065      0.0339
         4        -0.2852     -0.1926      0.0424      0.1202      0.6068
         5         0.1878     -0.0313      0.0036      0.0363      0.1724
         6        -0.0413      0.0720      0.0101      0.0070      0.0325
         7         0.0400     -0.0558     -0.0032      0.0047      0.0211
         8         0.2450     -0.2641     -0.0122      0.1300      0.5665
         9         0.0554     -0.1048      0.0114      0.0142      0.0613
        10         0.0841     -0.1482     -0.0612      0.0328      0.1372
 Ground to excited state transition magnetic dipole moments (Au):
       state          X           Y           Z
         1        -0.0884      0.1276      3.7577
         2        -0.1388     -0.4501     -1.1298
         3         0.0589      0.3410      0.4700
         4         0.0213     -0.5784     -4.8112
         5        -0.1111     -0.0058      1.9920
         6         0.1128      0.2502     -0.8297
         7         0.0301     -0.1476      0.3091
         8        -0.3747     -0.8225      3.0255
         9        -0.1554     -0.0512      0.8793
        10        -0.1770     -1.0062      1.8810
 Ground to excited state transition velocity quadrupole moments (Au):
       state          XX          YY          ZZ          XY          XZ          YZ
         1         4.2039     -0.2449     -0.1299      0.8383     -0.3055     -0.1905
         2        -5.8711      0.1963     -0.1355     -2.1828      0.3141     -0.0907
         3         1.7064     -0.0359      0.0669      0.8453     -0.3088      0.0576
         4        -7.0463     -0.5205      0.0867     -4.6864      0.8667      0.2090
         5        -0.2144      0.4100     -0.1238      0.1825     -0.1687     -0.2143
         6         0.9566     -0.2208      0.0251     -0.2141     -0.2201      0.0107
         7        -0.9280     -0.1590     -0.3806     -0.3857      0.0924     -0.3134
         8        -4.5461      0.2385     -0.3889     -0.1063      0.3161     -0.2421
         9        -2.3580     -0.4485     -0.2106     -0.3856      0.0686      0.0441
        10        -0.6277     -0.4977     -0.4481      1.7004      0.5107     -0.1175
 <0|del|b> * <b|rxdel|0> + <0|del|b> * <b|delr+rdel|0>
 Rotatory Strengths (R) in cgs (10**-40 erg-esu-cm/Gauss)
       state          XX          YY          ZZ    R(velocity)    E-M Angle
         1        30.2516   -501.1697    102.2604   -122.8859       91.77
         2       162.6676    109.0675     78.9415    116.8922       75.02
         3       146.3669      6.9553      6.4549     53.2590       52.21
         4      -333.7156   -190.0013     -5.3262   -176.3477       93.37
         5         7.0544   -137.5212     62.6364    -22.6101       92.03
         6        57.4630    -27.9493     -5.0699      8.1479       86.11
         7        32.3555    -32.2509     39.9489     13.3512       69.08
         8       613.2067   -437.5261    234.1269    136.6025       85.53
         9        41.6631     18.9371    -29.5037     10.3655       86.35
        10        12.0181    -79.5920    151.9093     28.1118       87.19
 1/2[<0|r|b>*<b|rxdel|0> + (<0|rxdel|b>*<b|r|0>)*]
 Rotatory Strengths (R) in cgs (10**-40 erg-esu-cm/Gauss)
       state          XX          YY          ZZ     R(length)
         1      -272.3311     80.5934   -185.1752   -125.6376
         2        37.6702    486.8062   -172.1668    117.4365
         3        12.7156    133.4505     12.3745     52.8468
         4       -33.6953    613.8831  -1100.8992   -173.5705
         5      -108.3142      0.9159     40.6896    -22.2362
         6       -23.4249     89.7236    -35.1517     10.3824
         7         5.9218     39.6487     -4.8869     13.5612
         8      -433.2528   1028.2782   -131.6584    154.4556
         9       -38.1317     25.6169     48.3688     11.9514
        10       -71.3521    663.4684   -491.9390     33.3924
  1/2[<0|del|b>*<b|r|0> + (<0|r|b>*<b|del|0>)*] (Au)
       state          X           Y           Z        Dip. S.   Osc.(frdel)
         1        -1.7486     -0.0731     -0.0004      1.8221      1.2148
         2        -0.0186     -0.2864     -0.0056      0.3106      0.2070
         3        -0.0117     -0.0391     -0.0002      0.0510      0.0340
         4        -0.6384     -0.2891     -0.0137      0.9412      0.6274
         5        -0.2588     -0.0070     -0.0001      0.2660      0.1773
         6        -0.0121     -0.0365     -0.0006      0.0492      0.0328
         7        -0.0111     -0.0212     -0.0001      0.0324      0.0216
         8        -0.4006     -0.4669     -0.0007      0.8683      0.5789
         9        -0.0192     -0.0742     -0.0009      0.0943      0.0629
        10        -0.0479     -0.1381     -0.0226      0.2087      0.1392

 Excitation energies and oscillator strengths:
 
 Excited State   1:      Singlet-A      2.4864 eV  498.66 nm  f=1.2051  <S**2>=0.000
     221 -> 224        0.50241
     223 -> 224        0.45993
 This state for optimization and/or second-order correction.
 Total Energy, E(TD-HF/TD-DFT) =  -3620.60933291    
 Copying the excited state density for this state as the 1-particle RhoCI density.
 
 Excited State   2:      Singlet-A      3.3877 eV  365.99 nm  f=0.2102  <S**2>=0.000
     219 -> 224       -0.15636
     220 -> 224        0.31117
     221 -> 224       -0.37542
     222 -> 224        0.11700
     223 -> 224        0.42140
 
 Excited State   3:      Singlet-A      3.4696 eV  357.34 nm  f=0.0341  <S**2>=0.000
     220 -> 224       -0.13630
     222 -> 224        0.66733
 
 Excited State   4:      Singlet-A      3.5945 eV  344.93 nm  f=0.6488  <S**2>=0.000
     217 -> 224        0.10920
     219 -> 224       -0.15182
     220 -> 224        0.13714
     220 -> 225       -0.17908
     221 -> 224        0.15792
     221 -> 225        0.42955
     221 -> 226       -0.11385
     223 -> 224       -0.19686
     223 -> 225        0.27751
     223 -> 226       -0.15425
 
 Excited State   5:      Singlet-A      3.8152 eV  324.98 nm  f=0.1824  <S**2>=0.000
     213 -> 224       -0.10713
     219 -> 224       -0.26123
     220 -> 224        0.43553
     220 -> 225        0.11118
     221 -> 224        0.19462
     221 -> 225       -0.19045
     221 -> 226        0.13709
     223 -> 224       -0.21948
     223 -> 225       -0.15572
 
 Excited State   6:      Singlet-A      3.8991 eV  317.98 nm  f=0.0331  <S**2>=0.000
     221 -> 227       -0.17475
     222 -> 226       -0.12859
     222 -> 228       -0.33384
     222 -> 229        0.14762
     223 -> 226       -0.19053
     223 -> 227        0.43195
 
 Excited State   7:      Singlet-A      4.0520 eV  305.98 nm  f=0.0221  <S**2>=0.000
     221 -> 228       -0.13662
     221 -> 229        0.10683
     222 -> 226       -0.18267
     222 -> 227        0.41738
     222 -> 229        0.11131
     223 -> 226        0.22362
     223 -> 228        0.33594
 
 Excited State   8:      Singlet-A      4.1617 eV  297.91 nm  f=0.5916  <S**2>=0.000
     212 -> 224        0.16624
     214 -> 224       -0.17355
     215 -> 224       -0.14686
     217 -> 224       -0.12329
     219 -> 224        0.10735
     221 -> 225        0.10346
     221 -> 226        0.26729
     222 -> 227       -0.21057
     222 -> 228       -0.20606
     223 -> 226        0.30088
     223 -> 229        0.12675
     223 -> 230        0.10095
 
 Excited State   9:      Singlet-A      4.2023 eV  295.04 nm  f=0.0646  <S**2>=0.000
     215 -> 224        0.52381
     215 -> 225        0.11548
     216 -> 224        0.20778
     217 -> 224        0.20817
     221 -> 226        0.12231
     223 -> 226        0.14182
 
 Excited State  10:      Singlet-A      4.3326 eV  286.17 nm  f=0.1413  <S**2>=0.000
     212 -> 224       -0.13072
     214 -> 224        0.55880
     217 -> 224       -0.11186
     222 -> 228       -0.15834
     223 -> 227       -0.15103
 SavETr:  write IOETrn=   770 NScale= 10 NData=  16 NLR=1 NState=   10 LETran=     190.

 **********************************************************************

            Population analysis using the SCF Density.

 **********************************************************************

 Orbital symmetries:
       Occupied  (A) (A) (A) (A) (A) (A) (A) (A) (A) (A) (A) (A)
                 (A) (A) (A) (A) (A) (A) (A) (A) (A) (A) (A) (A)
                 (A) (A) (A) (A) (A) (A) (A) (A) (A) (A) (A) (A)
                 (A) (A) (A) (A) (A) (A) (A) (A) (A) (A) (A) (A)
                 (A) (A) (A) (A) (A) (A) (A) (A) (A) (A) (A) (A)
                 (A) (A) (A) (A) (A) (A) (A) (A) (A) (A) (A) (A)
                 (A) (A) (A) (A) (A) (A) (A) (A) (A) (A) (A) (A)
                 (A) (A) (A) (A) (A) (A) (A) (A) (A) (A) (A) (A)
                 (A) (A) (A) (A) (A) (A) (A) (A) (A) (A) (A) (A)
                 (A) (A) (A) (A) (A) (A) (A) (A) (A) (A) (A) (A)
                 (A) (A) (A) (A) (A) (A) (A) (A) (A) (A) (A) (A)
                 (A) (A) (A) (A) (A) (A) (A) (A) (A) (A) (A) (A)
                 (A) (A) (A) (A) (A) (A) (A) (A) (A) (A) (A) (A)
                 (A) (A) (A) (A) (A) (A) (A) (A) (A) (A) (A) (A)
                 (A) (A) (A) (A) (A) (A) (A) (A) (A) (A) (A) (A)
                 (A) (A) (A) (A) (A) (A) (A) (A) (A) (A) (A) (A)
                 (A) (A) (A) (A) (A) (A) (A) (A) (A) (A) (A) (A)
                 (A) (A) (A) (A) (A) (A) (A) (A) (A) (A) (A) (A)
                 (A) (A) (A) (A) (A) (A) (A)
       Virtual   (A) (A) (A) (A) (A) (A) (A) (A) (A) (A) (A) (A)
                 (A) (A) (A) (A) (A) (A) (A) (A) (A) (A) (A) (A)
                 (A) (A) (A) (A) (A) (A) (A) (A) (A) (A) (A) (A)
                 (A) (A) (A) (A) (A) (A) (A) (A) (A) (A) (A) (A)
                 (A) (A) (A) (A) (A) (A) (A) (A) (A) (A) (A) (A)
                 (A) (A) (A) (A) (A) (A) (A) (A) (A) (A) (A) (A)
                 (A) (A) (A) (A) (A) (A) (A) (A) (A) (A) (A) (A)
                 (A) (A) (A) (A) (A) (A) (A) (A) (A) (A) (A) (A)
                 (A) (A) (A) (A) (A) (A) (A) (A) (A) (A) (A) (A)
                 (A) (A) (A) (A) (A) (A) (A) (A) (A) (A) (A) (A)
                 (A) (A) (A) (A) (A) (A) (A) (A) (A) (A) (A) (A)
                 (A) (A) (A) (A) (A) (A) (A) (A) (A) (A) (A) (A)
                 (A) (A) (A) (A) (A) (A) (A) (A) (A) (A) (A) (A)
                 (A) (A) (A) (A) (A) (A) (A) (A) (A) (A) (A) (A)
                 (A) (A) (A) (A) (A) (A) (A) (A) (A) (A) (A) (A)
                 (A) (A) (A) (A) (A) (A) (A) (A) (A) (A) (A) (A)
                 (A) (A) (A) (A) (A) (A) (A) (A) (A) (A) (A) (A)
                 (A) (A) (A) (A) (A) (A) (A) (A) (A) (A) (A) (A)
                 (A) (A) (A) (A) (A) (A) (A) (A) (A) (A) (A) (A)
                 (A) (A) (A) (A) (A) (A) (A) (A) (A) (A) (A) (A)
                 (A) (A) (A) (A) (A) (A) (A) (A) (A) (A) (A) (A)
                 (A) (A) (A) (A) (A) (A) (A) (A) (A) (A) (A) (A)
                 (A) (A) (A) (A) (A) (A) (A) (A) (A) (A) (A) (A)
                 (A) (A) (A) (A) (A) (A) (A) (A) (A) (A) (A) (A)
                 (A) (A) (A) (A) (A) (A) (A) (A) (A) (A) (A) (A)
                 (A) (A) (A) (A) (A) (A) (A) (A) (A) (A) (A) (A)
                 (A) (A) (A) (A) (A) (A) (A) (A) (A) (A) (A) (A)
                 (A) (A) (A) (A) (A) (A) (A) (A) (A) (A) (A) (A)
                 (A) (A) (A) (A) (A) (A) (A) (A) (A) (A) (A) (A)
                 (A) (A) (A) (A) (A) (A) (A) (A) (A) (A) (A) (A)
                 (A) (A) (A) (A) (A) (A) (A) (A) (A) (A) (A) (A)
                 (A) (A) (A) (A) (A) (A) (A) (A) (A) (A) (A) (A)
                 (A) (A) (A) (A) (A) (A) (A) (A) (A) (A) (A) (A)
                 (A) (A) (A) (A) (A) (A) (A) (A) (A) (A) (A) (A)
                 (A) (A) (A) (A) (A) (A) (A) (A) (A) (A) (A) (A)
                 (A) (A) (A) (A) (A) (A) (A) (A) (A) (A) (A) (A)
                 (A) (A) (A) (A) (A) (A) (A) (A) (A) (A) (A) (A)
                 (A) (A) (A) (A) (A) (A) (A) (A) (A) (A) (A) (A)
                 (A) (A) (A) (A) (A) (A) (A) (A) (A) (A) (A) (A)
                 (A) (A) (A) (A) (A) (A) (A) (A) (A) (A) (A) (A)
                 (A) (A) (A) (A) (A) (A) (A) (A) (A) (A) (A) (A)
                 (A) (A) (A) (A) (A) (A) (A) (A) (A) (A) (A) (A)
                 (A) (A) (A) (A) (A) (A) (A) (A) (A) (A) (A) (A)
                 (A) (A) (A) (A) (A) (A) (A) (A) (A) (A) (A) (A)
                 (A) (A) (A) (A) (A) (A) (A) (A) (A) (A) (A) (A)
                 (A) (A) (A) (A) (A) (A) (A) (A) (A) (A) (A) (A)
                 (A) (A) (A) (A) (A) (A) (A) (A) (A) (A) (A) (A)
                 (A) (A) (A) (A) (A) (A) (A) (A) (A) (A) (A) (A)
                 (A) (A) (A) (A) (A) (A) (A) (A) (A) (A) (A) (A)
                 (A) (A) (A) (A) (A) (A) (A) (A) (A) (A) (A) (A)
                 (A) (A) (A) (A) (A) (A) (A) (A) (A) (A) (A) (A)
                 (A) (A) (A) (A) (A) (A) (A) (A) (A) (A) (A) (A)
                 (A) (A) (A) (A) (A) (A) (A) (A) (A) (A) (A) (A)
                 (A) (A) (A) (A) (A) (A) (A) (A) (A) (A) (A) (A)
                 (A) (A) (A) (A) (A) (A) (A) (A) (A) (A) (A) (A)
                 (A) (A) (A) (A) (A) (A) (A) (A) (A) (A) (A) (A)
                 (A) (A) (A) (A) (A) (A) (A) (A) (A) (A) (A) (A)
                 (A) (A) (A) (A) (A) (A) (A) (A) (A) (A) (A) (A)
                 (A) (A) (A) (A) (A) (A) (A) (A) (A) (A) (A) (A)
                 (A) (A) (A) (A) (A) (A) (A) (A) (A) (A) (A) (A)
                 (A) (A) (A) (A) (A) (A) (A) (A) (A) (A) (A) (A)
                 (A) (A) (A) (A) (A) (A) (A) (A) (A) (A) (A) (A)
                 (A) (A) (A) (A) (A) (A) (A) (A) (A) (A) (A) (A)
                 (A) (A) (A) (A) (A) (A) (A) (A) (A) (A) (A) (A)
                 (A) (A) (A) (A) (A) (A) (A) (A) (A) (A) (A) (A)
                 (A) (A) (A) (A) (A) (A) (A) (A) (A) (A) (A) (A)
                 (A) (A) (A) (A) (A) (A) (A) (A) (A) (A) (A) (A)
                 (A) (A) (A) (A) (A) (A) (A) (A) (A) (A) (A) (A)
                 (A) (A) (A) (A) (A) (A) (A) (A) (A) (A) (A) (A)
                 (A) (A) (A) (A) (A) (A) (A) (A) (A) (A) (A) (A)
                 (A) (A) (A) (A) (A) (A) (A) (A) (A) (A) (A) (A)
                 (A) (A) (A) (A) (A) (A) (A) (A) (A) (A) (A) (A)
                 (A) (A) (A) (A) (A) (A) (A) (A) (A) (A) (A) (A)
                 (A) (A) (A) (A) (A) (A) (A) (A) (A) (A) (A) (A)
                 (A) (A) (A) (A) (A) (A) (A) (A) (A) (A) (A) (A)
                 (A) (A) (A) (A) (A) (A) (A) (A) (A) (A) (A) (A)
                 (A) (A) (A) (A) (A) (A) (A) (A) (A) (A) (A) (A)
                 (A) (A) (A) (A) (A) (A) (A) (A) (A) (A) (A) (A)
                 (A) (A) (A) (A) (A) (A) (A) (A) (A) (A) (A) (A)
                 (A) (A) (A) (A) (A) (A) (A) (A) (A) (A) (A) (A)
                 (A) (A) (A) (A) (A) (A) (A) (A) (A) (A) (A) (A)
                 (A) (A) (A) (A) (A) (A) (A) (A) (A) (A) (A) (A)
                 (A) (A) (A) (A) (A) (A) (A) (A) (A) (A) (A) (A)
                 (A) (A) (A) (A) (A) (A) (A) (A) (A) (A) (A) (A)
                 (A) (A) (A) (A) (A) (A) (A) (A) (A) (A) (A) (A)
                 (A) (A) (A) (A) (A) (A) (A) (A) (A) (A) (A) (A)
                 (A) (A) (A) (A) (A) (A) (A) (A) (A) (A) (A) (A)
                 (A) (A) (A) (A) (A) (A) (A) (A) (A) (A) (A) (A)
                 (A) (A) (A) (A) (A) (A) (A) (A) (A) (A) (A) (A)
                 (A) (A) (A) (A) (A) (A) (A) (A) (A) (A) (A) (A)
                 (A) (A) (A) (A) (A) (A) (A) (A) (A) (A) (A) (A)
                 (A) (A) (A) (A) (A) (A) (A) (A) (A) (A) (A) (A)
                 (A) (A) (A) (A) (A) (A) (A) (A) (A) (A) (A) (A)
                 (A) (A) (A) (A) (A) (A) (A) (A) (A) (A) (A)
 The electronic state is 1-A.
 Alpha  occ. eigenvalues --  -89.01896 -88.95342 -88.94332 -19.23814 -19.17706
 Alpha  occ. eigenvalues --  -14.43554 -14.43323 -14.43269 -14.43260 -14.43181
 Alpha  occ. eigenvalues --  -10.38400 -10.31752 -10.31686 -10.30004 -10.29878
 Alpha  occ. eigenvalues --  -10.29834 -10.29809 -10.29702 -10.29605 -10.29213
 Alpha  occ. eigenvalues --  -10.29199 -10.29066 -10.28758 -10.28697 -10.28650
 Alpha  occ. eigenvalues --  -10.28592 -10.28344 -10.28215 -10.28204 -10.28166
 Alpha  occ. eigenvalues --  -10.28090 -10.27505 -10.27482 -10.27365 -10.27146
 Alpha  occ. eigenvalues --  -10.27104 -10.27014 -10.26654 -10.26384 -10.26109
 Alpha  occ. eigenvalues --  -10.26082 -10.25769 -10.25594 -10.25472 -10.25457
 Alpha  occ. eigenvalues --  -10.25454 -10.25419 -10.25331 -10.25309 -10.25222
 Alpha  occ. eigenvalues --  -10.25076 -10.25041 -10.24824 -10.24796 -10.24792
 Alpha  occ. eigenvalues --  -10.24763 -10.24745 -10.24544 -10.24495 -10.24356
 Alpha  occ. eigenvalues --  -10.24034 -10.23978  -8.10423  -8.04253  -8.03266
 Alpha  occ. eigenvalues --   -6.06940  -6.06338  -6.06101  -6.00669  -6.00269
 Alpha  occ. eigenvalues --   -5.99873  -5.99671  -5.99276  -5.98905  -1.18808
 Alpha  occ. eigenvalues --   -1.12114  -1.10557  -1.08409  -1.07557  -1.07322
 Alpha  occ. eigenvalues --   -0.99491  -0.98757  -0.97756  -0.97445  -0.95863
 Alpha  occ. eigenvalues --   -0.94216  -0.93771  -0.93361  -0.93333  -0.90063
 Alpha  occ. eigenvalues --   -0.89216  -0.88630  -0.88434  -0.86428  -0.86109
 Alpha  occ. eigenvalues --   -0.85677  -0.85596  -0.85225  -0.84120  -0.83636
 Alpha  occ. eigenvalues --   -0.83153  -0.83034  -0.82049  -0.81680  -0.81222
 Alpha  occ. eigenvalues --   -0.80138  -0.78200  -0.77052  -0.76915  -0.76865
 Alpha  occ. eigenvalues --   -0.76078  -0.74515  -0.73845  -0.71686  -0.71304
 Alpha  occ. eigenvalues --   -0.71166  -0.70656  -0.70406  -0.70124  -0.69247
 Alpha  occ. eigenvalues --   -0.68571  -0.67092  -0.66702  -0.66046  -0.64940
 Alpha  occ. eigenvalues --   -0.64559  -0.64493  -0.64222  -0.62751  -0.62083
 Alpha  occ. eigenvalues --   -0.61153  -0.61036  -0.60451  -0.59312  -0.59259
 Alpha  occ. eigenvalues --   -0.58900  -0.58752  -0.57203  -0.56586  -0.56456
 Alpha  occ. eigenvalues --   -0.56358  -0.55600  -0.55138  -0.54665  -0.54452
 Alpha  occ. eigenvalues --   -0.54226  -0.54056  -0.53756  -0.53525  -0.53207
 Alpha  occ. eigenvalues --   -0.52898  -0.52618  -0.51968  -0.51768  -0.51652
 Alpha  occ. eigenvalues --   -0.51517  -0.51490  -0.51353  -0.51307  -0.50749
 Alpha  occ. eigenvalues --   -0.50526  -0.50408  -0.50290  -0.49995  -0.49388
 Alpha  occ. eigenvalues --   -0.49296  -0.48498  -0.48436  -0.48138  -0.47535
 Alpha  occ. eigenvalues --   -0.47361  -0.47338  -0.47325  -0.46911  -0.46494
 Alpha  occ. eigenvalues --   -0.46378  -0.46131  -0.45987  -0.45867  -0.45731
 Alpha  occ. eigenvalues --   -0.45427  -0.45339  -0.44840  -0.44822  -0.44664
 Alpha  occ. eigenvalues --   -0.44334  -0.43534  -0.43274  -0.43180  -0.42671
 Alpha  occ. eigenvalues --   -0.42558  -0.42327  -0.41890  -0.41492  -0.41023
 Alpha  occ. eigenvalues --   -0.40616  -0.40424  -0.40221  -0.40015  -0.39850
 Alpha  occ. eigenvalues --   -0.39568  -0.38902  -0.38719  -0.37447  -0.36060
 Alpha  occ. eigenvalues --   -0.35280  -0.35039  -0.34708  -0.34536  -0.34346
 Alpha  occ. eigenvalues --   -0.33656  -0.33211  -0.32609  -0.31267  -0.30523
 Alpha  occ. eigenvalues --   -0.30343  -0.30046  -0.29558  -0.28100  -0.26810
 Alpha  occ. eigenvalues --   -0.24362  -0.23559  -0.23152
 Alpha virt. eigenvalues --   -0.07491  -0.03927  -0.00637   0.00382   0.00648
 Alpha virt. eigenvalues --    0.01247   0.01456   0.02519   0.04256   0.04263
 Alpha virt. eigenvalues --    0.04820   0.04857   0.05444   0.05555   0.06222
 Alpha virt. eigenvalues --    0.06555   0.06601   0.07234   0.07797   0.08211
 Alpha virt. eigenvalues --    0.08452   0.08695   0.09033   0.09121   0.09312
 Alpha virt. eigenvalues --    0.09349   0.09648   0.09833   0.10094   0.10290
 Alpha virt. eigenvalues --    0.10451   0.10816   0.11496   0.11745   0.12032
 Alpha virt. eigenvalues --    0.12324   0.12685   0.13215   0.14168   0.14377
 Alpha virt. eigenvalues --    0.14448   0.14643   0.15001   0.15249   0.15529
 Alpha virt. eigenvalues --    0.15818   0.15917   0.16181   0.16271   0.16320
 Alpha virt. eigenvalues --    0.16535   0.17019   0.17319   0.17522   0.17616
 Alpha virt. eigenvalues --    0.18023   0.18245   0.18396   0.19185   0.19604
 Alpha virt. eigenvalues --    0.19866   0.20466   0.20654   0.21105   0.21340
 Alpha virt. eigenvalues --    0.21464   0.21712   0.21910   0.22339   0.22471
 Alpha virt. eigenvalues --    0.22662   0.22811   0.23235   0.23964   0.24315
 Alpha virt. eigenvalues --    0.24470   0.24571   0.24619   0.24867   0.25117
 Alpha virt. eigenvalues --    0.25486   0.26003   0.26767   0.26980   0.27218
 Alpha virt. eigenvalues --    0.27332   0.27677   0.28222   0.28536   0.28713
 Alpha virt. eigenvalues --    0.28824   0.28918   0.29527   0.29695   0.30171
 Alpha virt. eigenvalues --    0.30647   0.30840   0.31065   0.31361   0.31564
 Alpha virt. eigenvalues --    0.31903   0.32306   0.32700   0.33076   0.33172
 Alpha virt. eigenvalues --    0.33625   0.33816   0.34218   0.34343   0.34522
 Alpha virt. eigenvalues --    0.35119   0.35688   0.35749   0.35786   0.36669
 Alpha virt. eigenvalues --    0.36857   0.37044   0.37584   0.37851   0.38109
 Alpha virt. eigenvalues --    0.38490   0.38721   0.38846   0.39412   0.39991
 Alpha virt. eigenvalues --    0.40260   0.40327   0.40682   0.40992   0.41218
 Alpha virt. eigenvalues --    0.41327   0.41475   0.41882   0.42084   0.42275
 Alpha virt. eigenvalues --    0.42426   0.42567   0.42808   0.42984   0.43249
 Alpha virt. eigenvalues --    0.43362   0.43520   0.44015   0.44172   0.44217
 Alpha virt. eigenvalues --    0.44458   0.44568   0.45091   0.45188   0.45227
 Alpha virt. eigenvalues --    0.45445   0.45661   0.45925   0.46076   0.46183
 Alpha virt. eigenvalues --    0.46194   0.46347   0.46623   0.46959   0.46981
 Alpha virt. eigenvalues --    0.47479   0.47626   0.47767   0.47995   0.48144
 Alpha virt. eigenvalues --    0.48239   0.48509   0.48560   0.48714   0.48868
 Alpha virt. eigenvalues --    0.49108   0.49263   0.49391   0.49518   0.49609
 Alpha virt. eigenvalues --    0.49700   0.49955   0.50234   0.50595   0.50813
 Alpha virt. eigenvalues --    0.50987   0.51138   0.51325   0.51348   0.51438
 Alpha virt. eigenvalues --    0.51884   0.52005   0.52096   0.52207   0.52469
 Alpha virt. eigenvalues --    0.52900   0.53279   0.53445   0.53731   0.53861
 Alpha virt. eigenvalues --    0.54047   0.54345   0.54426   0.54820   0.54886
 Alpha virt. eigenvalues --    0.55055   0.55514   0.55729   0.56134   0.56379
 Alpha virt. eigenvalues --    0.56656   0.56780   0.57001   0.57486   0.57671
 Alpha virt. eigenvalues --    0.57896   0.58208   0.58516   0.58812   0.59129
 Alpha virt. eigenvalues --    0.59289   0.59334   0.59544   0.59783   0.60188
 Alpha virt. eigenvalues --    0.60368   0.60411   0.60565   0.60792   0.61024
 Alpha virt. eigenvalues --    0.61378   0.61478   0.61804   0.61971   0.62391
 Alpha virt. eigenvalues --    0.62589   0.62807   0.63018   0.63081   0.63230
 Alpha virt. eigenvalues --    0.63431   0.63946   0.64147   0.64284   0.64704
 Alpha virt. eigenvalues --    0.64924   0.64994   0.65016   0.65611   0.65741
 Alpha virt. eigenvalues --    0.65804   0.66009   0.66147   0.66383   0.66501
 Alpha virt. eigenvalues --    0.66638   0.67024   0.67175   0.67228   0.67406
 Alpha virt. eigenvalues --    0.67685   0.67914   0.68221   0.68322   0.68476
 Alpha virt. eigenvalues --    0.68602   0.69041   0.69429   0.69744   0.70020
 Alpha virt. eigenvalues --    0.70219   0.70431   0.70617   0.70678   0.70917
 Alpha virt. eigenvalues --    0.71238   0.71391   0.71649   0.71924   0.72121
 Alpha virt. eigenvalues --    0.72469   0.72729   0.73111   0.73441   0.73673
 Alpha virt. eigenvalues --    0.73987   0.74573   0.74637   0.74883   0.75162
 Alpha virt. eigenvalues --    0.75614   0.75703   0.76155   0.76321   0.76829
 Alpha virt. eigenvalues --    0.77396   0.77431   0.77821   0.77991   0.78770
 Alpha virt. eigenvalues --    0.79138   0.79535   0.79724   0.80083   0.80300
 Alpha virt. eigenvalues --    0.80455   0.80654   0.80856   0.81409   0.81766
 Alpha virt. eigenvalues --    0.82001   0.82086   0.82488   0.82561   0.82835
 Alpha virt. eigenvalues --    0.83492   0.83839   0.84025   0.84106   0.84464
 Alpha virt. eigenvalues --    0.84605   0.84771   0.85116   0.85335   0.85630
 Alpha virt. eigenvalues --    0.85927   0.86005   0.86519   0.87176   0.87244
 Alpha virt. eigenvalues --    0.87481   0.87622   0.87774   0.88260   0.88470
 Alpha virt. eigenvalues --    0.88754   0.88832   0.89421   0.89886   0.90060
 Alpha virt. eigenvalues --    0.90574   0.90849   0.91025   0.91569   0.91786
 Alpha virt. eigenvalues --    0.91938   0.91978   0.92443   0.92899   0.93221
 Alpha virt. eigenvalues --    0.93535   0.93769   0.93972   0.94156   0.94974
 Alpha virt. eigenvalues --    0.95105   0.95178   0.95672   0.96018   0.96127
 Alpha virt. eigenvalues --    0.96235   0.96770   0.96875   0.97568   0.97965
 Alpha virt. eigenvalues --    0.98292   0.98867   0.99235   0.99546   0.99822
 Alpha virt. eigenvalues --    1.00384   1.00814   1.01317   1.01862   1.02057
 Alpha virt. eigenvalues --    1.02595   1.02835   1.02887   1.03065   1.03285
 Alpha virt. eigenvalues --    1.03493   1.03646   1.03789   1.04073   1.04901
 Alpha virt. eigenvalues --    1.05095   1.05482   1.06471   1.06708   1.06862
 Alpha virt. eigenvalues --    1.07135   1.07449   1.07737   1.07894   1.08472
 Alpha virt. eigenvalues --    1.08810   1.08855   1.09283   1.09744   1.09905
 Alpha virt. eigenvalues --    1.10330   1.10600   1.10934   1.11264   1.11527
 Alpha virt. eigenvalues --    1.11544   1.11869   1.12007   1.12340   1.12597
 Alpha virt. eigenvalues --    1.12832   1.13185   1.13439   1.13762   1.13994
 Alpha virt. eigenvalues --    1.14275   1.14448   1.14859   1.15211   1.15571
 Alpha virt. eigenvalues --    1.15679   1.15873   1.16650   1.17118   1.17532
 Alpha virt. eigenvalues --    1.17989   1.18333   1.18993   1.19752   1.20102
 Alpha virt. eigenvalues --    1.20663   1.20705   1.20948   1.21281   1.21862
 Alpha virt. eigenvalues --    1.22030   1.22215   1.22952   1.23192   1.23396
 Alpha virt. eigenvalues --    1.24401   1.24645   1.25217   1.26457   1.26697
 Alpha virt. eigenvalues --    1.26998   1.27318   1.27440   1.28227   1.29039
 Alpha virt. eigenvalues --    1.29826   1.30000   1.30359   1.30478   1.31519
 Alpha virt. eigenvalues --    1.31805   1.33464   1.33552   1.34060   1.34358
 Alpha virt. eigenvalues --    1.35002   1.35243   1.36286   1.36585   1.37080
 Alpha virt. eigenvalues --    1.37333   1.38399   1.38468   1.39159   1.40134
 Alpha virt. eigenvalues --    1.40648   1.41291   1.41542   1.41830   1.42390
 Alpha virt. eigenvalues --    1.42618   1.42961   1.43281   1.43651   1.44093
 Alpha virt. eigenvalues --    1.44560   1.44656   1.45224   1.45375   1.45545
 Alpha virt. eigenvalues --    1.46209   1.46702   1.47063   1.47376   1.47419
 Alpha virt. eigenvalues --    1.48191   1.48319   1.48675   1.49421   1.49632
 Alpha virt. eigenvalues --    1.50079   1.50155   1.50206   1.50465   1.51590
 Alpha virt. eigenvalues --    1.51647   1.51796   1.52262   1.52628   1.52705
 Alpha virt. eigenvalues --    1.53126   1.53680   1.53825   1.53894   1.54454
 Alpha virt. eigenvalues --    1.54648   1.54994   1.55137   1.55988   1.56345
 Alpha virt. eigenvalues --    1.56450   1.56477   1.57023   1.57102   1.57311
 Alpha virt. eigenvalues --    1.57462   1.57502   1.57972   1.58376   1.58755
 Alpha virt. eigenvalues --    1.59141   1.59208   1.59388   1.59588   1.60050
 Alpha virt. eigenvalues --    1.60555   1.60672   1.60966   1.61255   1.61272
 Alpha virt. eigenvalues --    1.61885   1.62067   1.62267   1.62438   1.62541
 Alpha virt. eigenvalues --    1.62667   1.63156   1.63709   1.63746   1.64200
 Alpha virt. eigenvalues --    1.64349   1.64823   1.65120   1.65711   1.65791
 Alpha virt. eigenvalues --    1.66095   1.66147   1.66779   1.66884   1.66992
 Alpha virt. eigenvalues --    1.67388   1.67777   1.67961   1.68346   1.68457
 Alpha virt. eigenvalues --    1.68750   1.69005   1.69118   1.69333   1.69825
 Alpha virt. eigenvalues --    1.70524   1.70782   1.71515   1.71839   1.72016
 Alpha virt. eigenvalues --    1.72872   1.73222   1.73647   1.73854   1.74308
 Alpha virt. eigenvalues --    1.74481   1.75026   1.75270   1.75466   1.76282
 Alpha virt. eigenvalues --    1.76551   1.77232   1.77391   1.77585   1.77808
 Alpha virt. eigenvalues --    1.78157   1.78342   1.78720   1.78894   1.79444
 Alpha virt. eigenvalues --    1.79969   1.80830   1.81018   1.81078   1.81332
 Alpha virt. eigenvalues --    1.81876   1.81893   1.82114   1.82593   1.82810
 Alpha virt. eigenvalues --    1.82929   1.83353   1.83660   1.83933   1.84071
 Alpha virt. eigenvalues --    1.84341   1.84741   1.85166   1.86064   1.86407
 Alpha virt. eigenvalues --    1.86841   1.87483   1.87638   1.88115   1.88282
 Alpha virt. eigenvalues --    1.88495   1.88938   1.89439   1.89581   1.90316
 Alpha virt. eigenvalues --    1.90547   1.90783   1.90960   1.90993   1.91177
 Alpha virt. eigenvalues --    1.91857   1.92329   1.92439   1.93015   1.93349
 Alpha virt. eigenvalues --    1.94008   1.94350   1.94511   1.95436   1.95915
 Alpha virt. eigenvalues --    1.96144   1.96281   1.96705   1.96947   1.97025
 Alpha virt. eigenvalues --    1.97313   1.97538   1.97811   1.97969   1.98000
 Alpha virt. eigenvalues --    1.98186   1.98310   1.98814   1.99183   1.99611
 Alpha virt. eigenvalues --    1.99827   1.99884   2.00066   2.00344   2.00665
 Alpha virt. eigenvalues --    2.00913   2.01130   2.01656   2.02235   2.02995
 Alpha virt. eigenvalues --    2.03274   2.03552   2.03799   2.03967   2.04566
 Alpha virt. eigenvalues --    2.04746   2.05243   2.06130   2.06483   2.06788
 Alpha virt. eigenvalues --    2.07343   2.07653   2.08388   2.08600   2.09326
 Alpha virt. eigenvalues --    2.09975   2.10249   2.10453   2.11193   2.11351
 Alpha virt. eigenvalues --    2.11979   2.12060   2.12361   2.12820   2.12962
 Alpha virt. eigenvalues --    2.13858   2.14261   2.14560   2.14748   2.15210
 Alpha virt. eigenvalues --    2.15521   2.16097   2.16268   2.16593   2.16966
 Alpha virt. eigenvalues --    2.17901   2.18214   2.18685   2.19277   2.19991
 Alpha virt. eigenvalues --    2.20121   2.20441   2.20857   2.21184   2.21908
 Alpha virt. eigenvalues --    2.22484   2.22908   2.23288   2.23346   2.23572
 Alpha virt. eigenvalues --    2.24047   2.24610   2.25488   2.26030   2.26704
 Alpha virt. eigenvalues --    2.26869   2.27338   2.28020   2.28189   2.29859
 Alpha virt. eigenvalues --    2.30110   2.30413   2.31292   2.31916   2.32539
 Alpha virt. eigenvalues --    2.33136   2.34542   2.34836   2.34998   2.37993
 Alpha virt. eigenvalues --    2.38222   2.38353   2.38916   2.38966   2.39538
 Alpha virt. eigenvalues --    2.39908   2.40253   2.40482   2.40932   2.41547
 Alpha virt. eigenvalues --    2.41696   2.42087   2.42654   2.42791   2.43084
 Alpha virt. eigenvalues --    2.43181   2.43571   2.43607   2.44385   2.44658
 Alpha virt. eigenvalues --    2.44746   2.46318   2.46779   2.47274   2.47894
 Alpha virt. eigenvalues --    2.48007   2.49000   2.49174   2.49349   2.50047
 Alpha virt. eigenvalues --    2.50466   2.51101   2.51247   2.51778   2.52733
 Alpha virt. eigenvalues --    2.53001   2.53532   2.54087   2.54940   2.55318
 Alpha virt. eigenvalues --    2.55557   2.56584   2.56910   2.57208   2.57460
 Alpha virt. eigenvalues --    2.57637   2.57989   2.58450   2.58813   2.58983
 Alpha virt. eigenvalues --    2.59403   2.59811   2.60130   2.60441   2.60595
 Alpha virt. eigenvalues --    2.61404   2.61709   2.62015   2.62122   2.62293
 Alpha virt. eigenvalues --    2.62575   2.63096   2.63210   2.63835   2.64214
 Alpha virt. eigenvalues --    2.64757   2.65145   2.65602   2.65977   2.66269
 Alpha virt. eigenvalues --    2.66406   2.66720   2.67150   2.67523   2.67970
 Alpha virt. eigenvalues --    2.68473   2.68827   2.68876   2.68980   2.69404
 Alpha virt. eigenvalues --    2.69891   2.70140   2.70798   2.71174   2.71476
 Alpha virt. eigenvalues --    2.71750   2.71939   2.72047   2.72294   2.72665
 Alpha virt. eigenvalues --    2.73362   2.73578   2.73899   2.74408   2.74517
 Alpha virt. eigenvalues --    2.74898   2.75146   2.75603   2.75717   2.75971
 Alpha virt. eigenvalues --    2.76340   2.76708   2.77007   2.77136   2.77680
 Alpha virt. eigenvalues --    2.77809   2.78510   2.78734   2.79501   2.79885
 Alpha virt. eigenvalues --    2.79967   2.80145   2.81170   2.81386   2.82237
 Alpha virt. eigenvalues --    2.82504   2.82733   2.83747   2.84037   2.84261
 Alpha virt. eigenvalues --    2.84600   2.84764   2.84856   2.85502   2.85970
 Alpha virt. eigenvalues --    2.86162   2.86820   2.87210   2.87759   2.88365
 Alpha virt. eigenvalues --    2.89323   2.90214   2.90379   2.90464   2.91013
 Alpha virt. eigenvalues --    2.91099   2.91501   2.91936   2.93207   2.93894
 Alpha virt. eigenvalues --    2.93981   2.94466   2.94796   2.95081   2.95465
 Alpha virt. eigenvalues --    2.95723   2.96282   2.96788   2.97009   2.97182
 Alpha virt. eigenvalues --    2.97616   2.97776   2.98085   2.98199   2.98371
 Alpha virt. eigenvalues --    2.98849   2.98908   2.99419   2.99943   3.00044
 Alpha virt. eigenvalues --    3.00565   3.00792   3.01875   3.02202   3.04886
 Alpha virt. eigenvalues --    3.05459   3.05639   3.07230   3.07557   3.08328
 Alpha virt. eigenvalues --    3.08554   3.09329   3.09708   3.10146   3.10673
 Alpha virt. eigenvalues --    3.11237   3.11446   3.11581   3.11720   3.12580
 Alpha virt. eigenvalues --    3.12888   3.14088   3.14272   3.15233   3.16126
 Alpha virt. eigenvalues --    3.16515   3.17076   3.18928   3.19757   3.20429
 Alpha virt. eigenvalues --    3.20585   3.22231   3.23856   3.24681   3.25404
 Alpha virt. eigenvalues --    3.26237   3.27679   3.27733   3.28040   3.28687
 Alpha virt. eigenvalues --    3.29287   3.30149   3.31626   3.33474   3.35077
 Alpha virt. eigenvalues --    3.35671   3.36430   3.36488   3.37541   3.39082
 Alpha virt. eigenvalues --    3.39771   3.40598   3.40764   3.41638   3.42401
 Alpha virt. eigenvalues --    3.42481   3.43192   3.43271   3.43454   3.44058
 Alpha virt. eigenvalues --    3.44905   3.45883   3.47138   3.47797   3.48289
 Alpha virt. eigenvalues --    3.48491   3.49588   3.53405   3.53553   3.54247
 Alpha virt. eigenvalues --    3.54516   3.54845   3.54887   3.55841   3.56290
 Alpha virt. eigenvalues --    3.56902   3.58873   3.58911   3.59475   3.61654
 Alpha virt. eigenvalues --    3.62170   3.63589   3.66005   3.66625   3.66751
 Alpha virt. eigenvalues --    3.68338   3.68776   3.70347   3.70911   3.71729
 Alpha virt. eigenvalues --    3.72496   3.73063   3.76506   3.78796   3.79645
 Alpha virt. eigenvalues --    3.80770   3.80812   3.81048   3.81830   3.82423
 Alpha virt. eigenvalues --    3.82465   3.83266   3.84460   3.85352   3.85991
 Alpha virt. eigenvalues --    3.89416   3.89531   3.89717   3.89928   3.90192
 Alpha virt. eigenvalues --    3.90292   3.90908   3.95619   3.95882   3.97207
 Alpha virt. eigenvalues --    4.01211   4.02758   4.03678   4.04361   4.04749
 Alpha virt. eigenvalues --    4.05923   4.06996   4.10132   4.10509   4.10819
 Alpha virt. eigenvalues --    4.11183   4.13055   4.13748   4.15300   4.17161
 Alpha virt. eigenvalues --    4.17676   4.20269   4.22300   4.23206   4.23399
 Alpha virt. eigenvalues --    4.25083   4.28561   4.28892   4.31619   4.33869
 Alpha virt. eigenvalues --    4.36672   4.42508   4.46924   4.51881   4.57100
 Alpha virt. eigenvalues --    4.66544   4.70292   4.74311   4.79142   4.84881
 Alpha virt. eigenvalues --    4.86970   4.87687   4.89100   4.89384   4.90211
 Alpha virt. eigenvalues --    4.90707   4.92779   4.98612   5.05485   5.07392
 Alpha virt. eigenvalues --    5.07638   5.08558   5.23214   5.24669   5.25302
 Alpha virt. eigenvalues --    5.35648   5.62269   5.85352   7.86578   7.88030
 Alpha virt. eigenvalues --    7.89764  17.19302  17.27092  17.29398  17.36727
 Alpha virt. eigenvalues --   17.39028  17.54494  17.56525  17.58208  17.61263
 Alpha virt. eigenvalues --   23.40334  23.50311  23.54818  23.61097  23.64031
 Alpha virt. eigenvalues --   23.65697  23.70403  23.75422  23.77536  23.84175
 Alpha virt. eigenvalues --   23.85333  23.88607  23.92083  23.93272  23.93356
 Alpha virt. eigenvalues --   23.93947  23.95201  23.95564  23.95728  23.96146
 Alpha virt. eigenvalues --   23.96180  23.97210  23.98314  23.98713  23.98783
 Alpha virt. eigenvalues --   23.98836  23.99915  24.01363  24.02470  24.02807
 Alpha virt. eigenvalues --   24.06554  24.08044  24.08156  24.09566  24.10570
 Alpha virt. eigenvalues --   24.10803  24.12054  24.14143  24.14650  24.15279
 Alpha virt. eigenvalues --   24.15682  24.17160  24.17310  24.18111  24.18289
 Alpha virt. eigenvalues --   24.18757  24.19637  24.21948  24.23465  24.25454
 Alpha virt. eigenvalues --   24.25491  25.20626  35.53082  35.62213  35.64258
 Alpha virt. eigenvalues --   35.64557  35.65824  49.88998  50.06132 188.90876
 Alpha virt. eigenvalues --  188.91919 188.94748
          Condensed to atoms (all electrons):
 Mulliken charges:
               1
     1  C   -0.233111
     2  C    0.014707
     3  C   -0.439513
     4  C    0.055103
     5  C   -0.008580
     6  C   -0.147943
     7  C   -0.030044
     8  C   -0.076973
     9  C   -0.231186
    10  C    0.415199
    11  O   -0.298004
    12  O   -0.295988
    13  C   -0.031138
    14  C   -0.027344
    15  S    0.321822
    16  C   -0.226517
    17  C    0.043207
    18  C    0.126196
    19  N   -0.489878
    20  S    0.565566
    21  N   -0.482115
    22  C    0.120234
    23  C   -0.089193
    24  C   -0.109757
    25  C    0.079246
    26  C   -0.289857
    27  S    0.298741
    28  C    0.021862
    29  C   -0.046674
    30  C   -0.272242
    31  C   -0.282822
    32  C   -0.055002
    33  C   -0.064170
    34  C   -0.088444
    35  C   -0.047316
    36  C   -0.040997
    37  C    0.201715
    38  N   -0.545169
    39  C   -0.204403
    40  C    0.234223
    41  C   -0.095083
    42  C    0.274347
    43  C   -0.130239
    44  C   -0.012368
    45  C   -0.058298
    46  C   -0.121689
    47  C   -0.103798
    48  C   -0.096711
    49  C    0.180358
    50  N   -0.551921
    51  C   -0.199940
    52  C    0.261812
    53  C   -0.110862
    54  C   -0.003277
    55  C    0.184068
    56  N   -0.543645
    57  C   -0.203440
    58  C   -0.099947
    59  C   -0.102062
    60  C   -0.121875
    61  C   -0.056899
    62  C   -0.003310
    63  H    0.121206
    64  H    0.131477
    65  H    0.129797
    66  H    0.114243
    67  H    0.100533
    68  H    0.244439
    69  H    0.131893
    70  H    0.117486
    71  H    0.114615
    72  H    0.113907
    73  H    0.126859
    74  H    0.121250
    75  H    0.128274
    76  H    0.131785
    77  H    0.109953
    78  H    0.107753
    79  H    0.125219
    80  H    0.136139
    81  H    0.152332
    82  H    0.132549
    83  H    0.107228
    84  H    0.095290
    85  H    0.098618
    86  H    0.107494
    87  H    0.151314
    88  H    0.129932
    89  H    0.137118
    90  H    0.153677
    91  H    0.132418
    92  H    0.132061
    93  H    0.107300
    94  H    0.098597
    95  H    0.094326
    96  H    0.103023
    97  H    0.131234
 Sum of Mulliken charges =  -0.00000
 Mulliken charges with hydrogens summed into heavy atoms:
               1
     1  C    0.149369
     2  C    0.014707
     3  C   -0.439513
     4  C    0.055103
     5  C   -0.008580
     6  C   -0.147943
     7  C    0.084199
     8  C    0.023559
     9  C   -0.231186
    10  C    0.415199
    11  O   -0.053564
    12  O   -0.295988
    13  C    0.100755
    14  C    0.090141
    15  S    0.321822
    16  C   -0.226517
    17  C    0.043207
    18  C    0.126196
    19  N   -0.489878
    20  S    0.565566
    21  N   -0.482115
    22  C    0.120234
    23  C    0.025422
    24  C    0.004149
    25  C    0.079246
    26  C   -0.289857
    27  S    0.298741
    28  C    0.148721
    29  C   -0.046674
    30  C    0.109067
    31  C   -0.282822
    32  C   -0.055002
    33  C    0.045784
    34  C    0.019308
    35  C    0.077903
    36  C   -0.040997
    37  C    0.201715
    38  N   -0.545169
    39  C    0.216617
    40  C    0.234223
    41  C   -0.095083
    42  C    0.274347
    43  C   -0.130239
    44  C   -0.012368
    45  C    0.048929
    46  C   -0.026399
    47  C   -0.005180
    48  C    0.010783
    49  C    0.180358
    50  N   -0.551921
    51  C    0.218424
    52  C    0.261812
    53  C   -0.110862
    54  C   -0.003277
    55  C    0.184068
    56  N   -0.543645
    57  C    0.214716
    58  C    0.007353
    59  C   -0.003465
    60  C   -0.027549
    61  C    0.046123
    62  C    0.127924
 Electronic spatial extent (au):  <R**2>=         116042.6109
 Charge=             -0.0000 electrons
 Dipole moment (field-independent basis, Debye):
    X=             -4.4948    Y=             -5.1862    Z=              2.6048  Tot=              7.3406
 Quadrupole moment (field-independent basis, Debye-Ang):
   XX=           -381.5284   YY=           -382.2175   ZZ=           -381.9261
   XY=            -67.3700   XZ=             43.6746   YZ=             14.3748
 Traceless Quadrupole moment (field-independent basis, Debye-Ang):
   XX=              0.3623   YY=             -0.3268   ZZ=             -0.0354
   XY=            -67.3700   XZ=             43.6746   YZ=             14.3748
 Octapole moment (field-independent basis, Debye-Ang**2):
  XXX=           -528.7966  YYY=           -287.0345  ZZZ=             26.1512  XYY=           -652.0023
  XXY=           -903.2943  XXZ=            306.5619  XZZ=            -65.2887  YZZ=            -15.0732
  YYZ=             98.9536  XYZ=            129.7900
 Hexadecapole moment (field-independent basis, Debye-Ang**3):
 XXXX=        -134548.7764 YYYY=         -25547.6918 ZZZZ=          -5475.2970 XXXY=         -13635.6896
 XXXZ=           8311.0121 YYYX=          -4723.8101 YYYZ=            499.7490 ZZZX=            155.8552
 ZZZY=            109.6716 XXYY=         -31630.4438 XXZZ=         -23541.9941 YYZZ=          -5092.0261
 XXYZ=           2756.7089 YYXZ=           1389.3575 ZZXY=            -97.7288
 N-N= 7.962139028355D+03 E-N=-2.440577202191D+04  KE= 3.610570273235D+03
 1\1\GINC-CN113\SP\RCAM-B3LYP TD-FC\6-311G(d,p)\C52H35N5O2S3\R2532\19-J
 ul-2021\0\\#N TD(NStates=10) CAM-B3lYP/6-311G(d,p)\\Name\\0,1\C,0,9.57
 25,-2.62523,0.622714\C,0,8.239196,-1.991206,0.350223\C,0,8.066035,-0.6
 62939,-0.006048\C,0,9.037824,0.329136,-0.178257\C,0,9.868849,1.200972,
 -0.330786\C,0,10.832902,2.223419,-0.509322\C,0,12.20195,1.967704,-0.30
 2263\C,0,13.138535,2.976377,-0.470222\C,0,12.744022,4.265838,-0.849649
 \C,0,13.707576,5.391186,-1.067154\O,0,14.936269,5.262229,-0.496154\O,0
 ,13.444192,6.372847,-1.707431\C,0,11.385741,4.515923,-1.081711\C,0,10.
 442067,3.519119,-0.906263\S,0,6.367486,-0.285381,-0.247341\C,0,5.89285
 1,-1.931697,0.136652\C,0,4.49124,-2.321388,0.1194\C,0,4.045086,-3.6565
 67,0.426643\N,0,4.826441,-4.685318,0.757553\S,0,3.855372,-5.979721,1.0
 08542\N,0,2.404868,-5.284678,0.707382\C,0,2.628103,-4.007303,0.397647\
 C,0,3.477946,-1.43111,-0.195564\C,0,2.110145,-1.768213,-0.22197\C,0,1.
 618507,-3.032369,0.062827\C,0,0.200274,-3.34431,0.024624\S,0,-0.978552
 ,-2.124581,-0.437665\C,0,-0.451555,-4.524327,0.308653\C,0,-1.866186,-4
 .474899,0.179422\C,0,-2.739275,-5.66067,0.497717\C,0,-2.317711,-3.2307
 34,-0.215118\C,0,-3.689063,-2.757154,-0.457375\C,0,-4.589015,-3.540927
 ,-1.209351\C,0,-5.867652,-3.088,-1.501455\C,0,-4.105764,-1.510631,0.03
 1617\C,0,-5.403856,-1.047611,-0.203123\C,0,-6.253955,-1.838216,-1.0202
 55\N,0,-7.435109,-1.157498,-1.249887\C,0,-8.634127,-1.833175,-1.718003
 \C,0,-7.3604,0.089678,-0.632982\C,0,-6.156296,0.15514,0.118542\C,0,-5.
 987749,1.267289,0.981336\C,0,-6.883402,2.369861,0.96418\C,0,-6.497472,
 3.242595,2.059568\C,0,-7.033648,4.384988,2.672851\C,0,-6.401217,4.9407
 93,3.778761\C,0,-5.235774,4.370533,4.304751\C,0,-4.70406,3.211801,3.75
 1516\C,0,-5.351325,2.65175,2.649384\N,0,-5.061991,1.459295,1.999834\C,
 0,-4.207686,0.450846,2.605945\C,0,-7.921813,2.35898,0.002547\C,0,-8.22
 0281,1.205743,-0.771821\C,0,-9.312962,1.571147,-1.661645\C,0,-9.632895
 ,2.919542,-1.357383\N,0,-8.779443,3.386228,-0.367765\C,0,-8.567981,4.8
 10508,-0.161228\C,0,-10.628968,3.62745,-2.029638\C,0,-11.314396,2.9827
 05,-3.052244\C,0,-10.991458,1.66699,-3.402555\C,0,-9.999776,0.966209,-
 2.724938\C,0,7.009795,-2.689606,0.42596\H,0,10.381571,-1.899431,0.5369
 12\H,0,9.767996,-3.438633,-0.082877\H,0,9.60165,-3.053173,1.62929\H,0,
 12.518966,0.972137,-0.018074\H,0,14.187707,2.731158,-0.337395\H,0,14.9
 43136,4.517058,0.115055\H,0,11.092449,5.508422,-1.400004\H,0,9.392654,
 3.724733,-1.076925\H,0,3.734918,-0.406575,-0.439178\H,0,1.413764,-0.97
 98,-0.482094\H,0,0.082118,-5.408663,0.622755\H,0,-2.326673,-6.219817,1
 .341206\H,0,-2.803366,-6.353436,-0.348561\H,0,-3.754757,-5.356365,0.75
 4493\H,0,-4.256931,-4.487894,-1.614906\H,0,-6.527019,-3.678286,-2.1261
 91\H,0,-3.397248,-0.916793,0.58884\H,0,-8.66931,-1.903308,-2.809266\H,
 0,-9.514439,-1.304965,-1.361471\H,0,-8.656745,-2.845031,-1.306219\H,0,
 -7.951805,4.829499,2.318867\H,0,-6.822509,5.824297,4.244431\H,0,-4.749
 911,4.826352,5.159705\H,0,-3.811723,2.761687,4.168884\H,0,-4.598775,-0
 .540911,2.394537\H,0,-4.210287,0.58897,3.688162\H,0,-3.174548,0.51586,
 2.251874\H,0,-7.549779,4.985612,0.174886\H,0,-9.266547,5.229593,0.5691
 69\H,0,-8.706522,5.332766,-1.110468\H,0,-10.866518,4.650342,-1.763883\
 H,0,-12.096272,3.508388,-3.588056\H,0,-11.516694,1.186325,-4.219928\H,
 0,-9.760401,-0.033771,-3.050741\H,0,6.935361,-3.733875,0.68851\\Versio
 n=ES64L-G16RevB.01\State=1-A\HF=-3620.7007048\RMSD=3.576e-09\PG=C01 [X
 (C52H35N5O2S3)]\\@


 QUANTUM MECHANICS IS BOHRING -- M.S. GORDON
 Job cpu time:       0 days  6 hours 57 minutes 11.4 seconds.
 Elapsed time:       0 days  6 hours 58 minutes 16.7 seconds.
 File lengths (MBytes):  RWF=  10829 Int=      0 D2E=      0 Chk=    679 Scr=      1
 Normal termination of Gaussian 16 at Mon Jul 19 17:02:27 2021.
