 Entering Gaussian System, Link 0=g16
 Input=GO.com
 Output=GO.out
 Initial command:
 /usr/local/apps/gaussian/g16-b01-avx2//g16/l1.exe "/tmp/r2532.924149.maple/Gau-29939.inp" -scrdir="/tmp/r2532.924149.maple/"
 Entering Link 1 = /usr/local/apps/gaussian/g16-b01-avx2//g16/l1.exe PID=     29941.
  
 Copyright (c) 1988-2017, Gaussian, Inc.  All Rights Reserved.
  
 This is part of the Gaussian(R) 16 program.  It is based on
 the Gaussian(R) 09 system (copyright 2009, Gaussian, Inc.),
 the Gaussian(R) 03 system (copyright 2003, Gaussian, Inc.),
 the Gaussian(R) 98 system (copyright 1998, Gaussian, Inc.),
 the Gaussian(R) 94 system (copyright 1995, Gaussian, Inc.),
 the Gaussian 92(TM) system (copyright 1992, Gaussian, Inc.),
 the Gaussian 90(TM) system (copyright 1990, Gaussian, Inc.),
 the Gaussian 88(TM) system (copyright 1988, Gaussian, Inc.),
 the Gaussian 86(TM) system (copyright 1986, Carnegie Mellon
 University), and the Gaussian 82(TM) system (copyright 1983,
 Carnegie Mellon University). Gaussian is a federally registered
 trademark of Gaussian, Inc.
  
 This software contains proprietary and confidential information,
 including trade secrets, belonging to Gaussian, Inc.
  
 This software is provided under written license and may be
 used, copied, transmitted, or stored only in accord with that
 written license.
  
 The following legend is applicable only to US Government
 contracts under FAR:
  
                    RESTRICTED RIGHTS LEGEND
  
 Use, reproduction and disclosure by the US Government is
 subject to restrictions as set forth in subparagraphs (a)
 and (c) of the Commercial Computer Software - Restricted
 Rights clause in FAR 52.227-19.
  
 Gaussian, Inc.
 340 Quinnipiac St., Bldg. 40, Wallingford CT 06492
  
  
 ---------------------------------------------------------------
 Warning -- This program may not be used in any manner that
 competes with the business of Gaussian, Inc. or will provide
 assistance to any competitor of Gaussian, Inc.  The licensee
 of this program is prohibited from giving any competitor of
 Gaussian, Inc. access to this program.  By using this program,
 the user acknowledges that Gaussian, Inc. is engaged in the
 business of creating and licensing software in the field of
 computational chemistry and represents and warrants to the
 licensee that it is not a competitor of Gaussian, Inc. and that
 it will not use this program in any manner prohibited above.
 ---------------------------------------------------------------
  

 Cite this work as:
 Gaussian 16, Revision B.01,
 M. J. Frisch, G. W. Trucks, H. B. Schlegel, G. E. Scuseria, 
 M. A. Robb, J. R. Cheeseman, G. Scalmani, V. Barone, 
 G. A. Petersson, H. Nakatsuji, X. Li, M. Caricato, A. V. Marenich, 
 J. Bloino, B. G. Janesko, R. Gomperts, B. Mennucci, H. P. Hratchian, 
 J. V. Ortiz, A. F. Izmaylov, J. L. Sonnenberg, D. Williams-Young, 
 F. Ding, F. Lipparini, F. Egidi, J. Goings, B. Peng, A. Petrone, 
 T. Henderson, D. Ranasinghe, V. G. Zakrzewski, J. Gao, N. Rega, 
 G. Zheng, W. Liang, M. Hada, M. Ehara, K. Toyota, R. Fukuda, 
 J. Hasegawa, M. Ishida, T. Nakajima, Y. Honda, O. Kitao, H. Nakai, 
 T. Vreven, K. Throssell, J. A. Montgomery, Jr., J. E. Peralta, 
 F. Ogliaro, M. J. Bearpark, J. J. Heyd, E. N. Brothers, K. N. Kudin, 
 V. N. Staroverov, T. A. Keith, R. Kobayashi, J. Normand, 
 K. Raghavachari, A. P. Rendell, J. C. Burant, S. S. Iyengar, 
 J. Tomasi, M. Cossi, J. M. Millam, M. Klene, C. Adamo, R. Cammi, 
 J. W. Ochterski, R. L. Martin, K. Morokuma, O. Farkas, 
 J. B. Foresman, and D. J. Fox, Gaussian, Inc., Wallingford CT, 2016.
 
 ******************************************
 Gaussian 16:  ES64L-G16RevB.01 20-Dec-2017
                 3-Aug-2021 
 ******************************************
 %mem=8gb
 ------------------------
 #N B3LYP/6-311G(d,p) OPT
 ------------------------
 1/18=20,19=15,26=3,38=1/1,3;
 2/9=110,12=2,17=6,18=5,40=1/2;
 3/5=4,6=6,7=101,11=2,25=1,30=1,71=1,74=-5/1,2,3;
 4//1;
 5/5=2,38=5/2;
 6/7=2,8=2,9=2,10=2,28=1/1;
 7//1,2,3,16;
 1/18=20,19=15,26=3/3(2);
 2/9=110/2;
 99//99;
 2/9=110/2;
 3/5=4,6=6,7=101,11=2,25=1,30=1,71=1,74=-5/1,2,3;
 4/5=5,16=3,69=1/1;
 5/5=2,38=5/2;
 7//1,2,3,16;
 1/18=20,19=15,26=3/3(-5);
 2/9=110/2;
 6/7=2,8=2,9=2,10=2,19=2,28=1/1;
 99/9=1/99;
 ------------
 C61H46O6N4S3
 ------------
 Symbolic Z-matrix:
 Charge =  0 Multiplicity = 1
 O                     1.16842   0.46467  -0.54682 
 C                     0.96225   1.58019  -1.00344 
 N                    -0.16587   1.98135  -1.69758 
 C                    -1.28265   1.05737  -1.93849 
 C                    -1.58715  -0.37683  -1.4636 
 O                    -0.69836  -1.03161  -0.7081 
 O                    -2.63753  -0.93089  -1.78445 
 C                     1.92999   2.68707  -0.88694 
 S                     1.32965   4.11591  -1.60745 
 C                    -0.14233   3.3092   -2.17067 
 C                    -0.98976   3.97528  -2.99475 
 S                    -0.7547    5.62567  -3.54484 
 C                    -1.78329   5.42763  -4.95118 
 N                    -2.35943   4.18572  -4.90801 
 C                    -3.23171   3.61052  -5.91906 
 C                    -2.17938   3.47092  -3.74124 
 O                    -2.93168   2.58545  -3.36981 
 S                    -1.9618    6.61323  -6.10614 
 C                     3.10998   2.49282  -0.28428 
 C                     4.10894   3.49491  -0.20657 
 C                     5.14306   3.73518  -1.08549 
 C                     5.98009   4.8032   -0.66017 
 C                     5.58187   5.36068   0.54323 
 C                     6.15241   6.40843   1.31653 
 C                     7.31857   6.9845    0.98265 
 C                     7.95564   8.04523   1.77001 
 C                     8.70642   9.0165    1.10922 
 C                     9.34661   10.02759   1.83283 
 O                     10.05225   10.93994   1.08052 
 C                     10.67243   11.97536   1.74813 
 C                     11.35335   12.88417   0.93168 
 C                     12.00612   13.9709   1.49821 
 C                     11.97309   14.1421   2.87717 
 C                     11.29155   13.22681   3.69256 
 C                     10.62475   12.11914   3.15115 
 N                     9.92439   11.15678   3.89508 
 C                     9.79611   11.2319   5.34602 
 C                     9.26634   10.09726   3.2338 
 C                     8.53322   9.09794   3.88554 
 C                     7.89147   8.08106   3.16694 
 S                     4.16282   4.57235   1.12056 
 H                    -1.32593   0.96088  -3.02935 
 H                    -2.14413   1.59947  -1.53173 
 H                     0.14012  -0.54897  -0.52618 
 H                    -3.26088   4.19979  -6.83569 
 H                    -4.24004   3.49942  -5.51075 
 H                    -2.84977   2.6109   -6.15824 
 H                     3.35713   1.52351   0.14303 
 H                     5.30104   3.16741  -1.99428 
 H                     6.84677   5.13366  -1.2186 
 H                     5.61785   6.73453   2.20723 
 H                     7.86116   6.69368   0.08826 
 H                     8.79612   9.00909   0.02559 
 H                     11.36918   12.73708  -0.14415 
 H                     12.53507   14.68099   0.86866 
 H                     12.47993   14.99072   3.32953 
 H                     11.30846   13.42184   4.75786 
 H                     10.3128   12.07197   5.81144 
 H                     10.21008   10.33053   5.81413 
 H                     8.74186   11.32831   5.63404 
 H                     8.44277   9.07414   4.96722 
 H                     7.3545    7.31482   3.72082 
 

 GradGradGradGradGradGradGradGradGradGradGradGradGradGradGradGradGradGrad
 Berny optimization.
 Initialization pass.
                           ----------------------------
                           !    Initial Parameters    !
                           ! (Angstroms and Degrees)  !
 --------------------------                            --------------------------
 ! Name  Definition              Value          Derivative Info.                !
 --------------------------------------------------------------------------------
 ! R1    R(1,2)                  1.2229         estimate D2E/DX2                !
 ! R2    R(2,3)                  1.384          estimate D2E/DX2                !
 ! R3    R(2,8)                  1.4749         estimate D2E/DX2                !
 ! R4    R(3,4)                  1.4693         estimate D2E/DX2                !
 ! R5    R(3,10)                 1.4098         estimate D2E/DX2                !
 ! R6    R(4,5)                  1.5412         estimate D2E/DX2                !
 ! R7    R(4,42)                 1.096          estimate D2E/DX2                !
 ! R8    R(4,43)                 1.0961         estimate D2E/DX2                !
 ! R9    R(5,6)                  1.3377         estimate D2E/DX2                !
 ! R10   R(5,7)                  1.2301         estimate D2E/DX2                !
 ! R11   R(6,44)                 0.9844         estimate D2E/DX2                !
 ! R12   R(8,9)                  1.7091         estimate D2E/DX2                !
 ! R13   R(8,19)                 1.3391         estimate D2E/DX2                !
 ! R14   R(9,10)                 1.7705         estimate D2E/DX2                !
 ! R15   R(10,11)                1.3568         estimate D2E/DX2                !
 ! R16   R(11,12)                1.7555         estimate D2E/DX2                !
 ! R17   R(11,16)                1.4923         estimate D2E/DX2                !
 ! R18   R(12,13)                1.7536         estimate D2E/DX2                !
 ! R19   R(13,14)                1.3697         estimate D2E/DX2                !
 ! R20   R(13,18)                1.6648         estimate D2E/DX2                !
 ! R21   R(14,15)                1.4539         estimate D2E/DX2                !
 ! R22   R(14,16)                1.3801         estimate D2E/DX2                !
 ! R23   R(15,45)                1.0901         estimate D2E/DX2                !
 ! R24   R(15,46)                1.0935         estimate D2E/DX2                !
 ! R25   R(15,47)                1.0965         estimate D2E/DX2                !
 ! R26   R(16,17)                1.2198         estimate D2E/DX2                !
 ! R27   R(19,20)                1.4171         estimate D2E/DX2                !
 ! R28   R(19,48)                1.0878         estimate D2E/DX2                !
 ! R29   R(20,21)                1.3783         estimate D2E/DX2                !
 ! R30   R(20,41)                1.7103         estimate D2E/DX2                !
 ! R31   R(21,22)                1.422          estimate D2E/DX2                !
 ! R32   R(21,49)                1.0832         estimate D2E/DX2                !
 ! R33   R(22,23)                1.3848         estimate D2E/DX2                !
 ! R34   R(22,50)                1.0827         estimate D2E/DX2                !
 ! R35   R(23,24)                1.4217         estimate D2E/DX2                !
 ! R36   R(23,41)                1.7229         estimate D2E/DX2                !
 ! R37   R(24,25)                1.3429         estimate D2E/DX2                !
 ! R38   R(24,51)                1.0888         estimate D2E/DX2                !
 ! R39   R(25,26)                1.4666         estimate D2E/DX2                !
 ! R40   R(25,52)                1.0858         estimate D2E/DX2                !
 ! R41   R(26,27)                1.3942         estimate D2E/DX2                !
 ! R42   R(26,40)                1.3989         estimate D2E/DX2                !
 ! R43   R(27,28)                1.3985         estimate D2E/DX2                !
 ! R44   R(27,53)                1.0874         estimate D2E/DX2                !
 ! R45   R(28,29)                1.3771         estimate D2E/DX2                !
 ! R46   R(28,38)                1.405          estimate D2E/DX2                !
 ! R47   R(29,30)                1.3793         estimate D2E/DX2                !
 ! R48   R(30,31)                1.3986         estimate D2E/DX2                !
 ! R49   R(30,35)                1.4112         estimate D2E/DX2                !
 ! R50   R(31,32)                1.3885         estimate D2E/DX2                !
 ! R51   R(31,54)                1.086          estimate D2E/DX2                !
 ! R52   R(32,33)                1.3899         estimate D2E/DX2                !
 ! R53   R(32,55)                1.0864         estimate D2E/DX2                !
 ! R54   R(33,34)                1.4025         estimate D2E/DX2                !
 ! R55   R(33,56)                1.087          estimate D2E/DX2                !
 ! R56   R(34,35)                1.4017         estimate D2E/DX2                !
 ! R57   R(34,57)                1.0831         estimate D2E/DX2                !
 ! R58   R(35,36)                1.4036         estimate D2E/DX2                !
 ! R59   R(36,37)                1.4585         estimate D2E/DX2                !
 ! R60   R(36,38)                1.4117         estimate D2E/DX2                !
 ! R61   R(37,58)                1.0906         estimate D2E/DX2                !
 ! R62   R(37,59)                1.0968         estimate D2E/DX2                !
 ! R63   R(37,60)                1.0971         estimate D2E/DX2                !
 ! R64   R(38,39)                1.4003         estimate D2E/DX2                !
 ! R65   R(39,40)                1.4008         estimate D2E/DX2                !
 ! R66   R(39,61)                1.0857         estimate D2E/DX2                !
 ! R67   R(40,62)                1.0873         estimate D2E/DX2                !
 ! A1    A(1,2,3)              126.0948         estimate D2E/DX2                !
 ! A2    A(1,2,8)              122.9899         estimate D2E/DX2                !
 ! A3    A(3,2,8)              110.9114         estimate D2E/DX2                !
 ! A4    A(2,3,4)              121.2985         estimate D2E/DX2                !
 ! A5    A(2,3,10)             115.3219         estimate D2E/DX2                !
 ! A6    A(4,3,10)             123.3638         estimate D2E/DX2                !
 ! A7    A(3,4,5)              133.2234         estimate D2E/DX2                !
 ! A8    A(3,4,42)             104.3929         estimate D2E/DX2                !
 ! A9    A(3,4,43)             103.0329         estimate D2E/DX2                !
 ! A10   A(5,4,42)             102.531          estimate D2E/DX2                !
 ! A11   A(5,4,43)             100.9883         estimate D2E/DX2                !
 ! A12   A(42,4,43)            112.4492         estimate D2E/DX2                !
 ! A13   A(4,5,6)              119.8851         estimate D2E/DX2                !
 ! A14   A(4,5,7)              120.4965         estimate D2E/DX2                !
 ! A15   A(6,5,7)              119.6149         estimate D2E/DX2                !
 ! A16   A(5,6,44)             115.4867         estimate D2E/DX2                !
 ! A17   A(2,8,9)              111.3237         estimate D2E/DX2                !
 ! A18   A(2,8,19)             120.3215         estimate D2E/DX2                !
 ! A19   A(9,8,19)             128.3522         estimate D2E/DX2                !
 ! A20   A(8,9,10)              92.5917         estimate D2E/DX2                !
 ! A21   A(3,10,9)             109.6505         estimate D2E/DX2                !
 ! A22   A(3,10,11)            130.9779         estimate D2E/DX2                !
 ! A23   A(9,10,11)            119.2615         estimate D2E/DX2                !
 ! A24   A(10,11,12)           124.6268         estimate D2E/DX2                !
 ! A25   A(10,11,16)           129.481          estimate D2E/DX2                !
 ! A26   A(12,11,16)           105.5302         estimate D2E/DX2                !
 ! A27   A(11,12,13)            93.8182         estimate D2E/DX2                !
 ! A28   A(12,13,14)           108.8957         estimate D2E/DX2                !
 ! A29   A(12,13,18)           122.606          estimate D2E/DX2                !
 ! A30   A(14,13,18)           128.4975         estimate D2E/DX2                !
 ! A31   A(13,14,15)           126.0954         estimate D2E/DX2                !
 ! A32   A(13,14,16)           116.1913         estimate D2E/DX2                !
 ! A33   A(15,14,16)           117.4684         estimate D2E/DX2                !
 ! A34   A(14,15,45)           112.7635         estimate D2E/DX2                !
 ! A35   A(14,15,46)           109.4963         estimate D2E/DX2                !
 ! A36   A(14,15,47)           107.66           estimate D2E/DX2                !
 ! A37   A(45,15,46)           110.1342         estimate D2E/DX2                !
 ! A38   A(45,15,47)           108.5847         estimate D2E/DX2                !
 ! A39   A(46,15,47)           108.0601         estimate D2E/DX2                !
 ! A40   A(11,16,14)           110.6014         estimate D2E/DX2                !
 ! A41   A(11,16,17)           125.7801         estimate D2E/DX2                !
 ! A42   A(14,16,17)           123.5683         estimate D2E/DX2                !
 ! A43   A(8,19,20)            122.9059         estimate D2E/DX2                !
 ! A44   A(8,19,48)            120.4145         estimate D2E/DX2                !
 ! A45   A(20,19,48)           116.6429         estimate D2E/DX2                !
 ! A46   A(19,20,21)           128.1135         estimate D2E/DX2                !
 ! A47   A(19,20,41)           120.6804         estimate D2E/DX2                !
 ! A48   A(21,20,41)           111.1847         estimate D2E/DX2                !
 ! A49   A(20,21,22)           112.4475         estimate D2E/DX2                !
 ! A50   A(20,21,49)           123.5797         estimate D2E/DX2                !
 ! A51   A(22,21,49)           123.9717         estimate D2E/DX2                !
 ! A52   A(21,22,23)           113.1421         estimate D2E/DX2                !
 ! A53   A(21,22,50)           123.1038         estimate D2E/DX2                !
 ! A54   A(23,22,50)           123.7495         estimate D2E/DX2                !
 ! A55   A(22,23,24)           130.8416         estimate D2E/DX2                !
 ! A56   A(22,23,41)           110.1118         estimate D2E/DX2                !
 ! A57   A(24,23,41)           119.0427         estimate D2E/DX2                !
 ! A58   A(23,24,25)           121.9655         estimate D2E/DX2                !
 ! A59   A(23,24,51)           117.9475         estimate D2E/DX2                !
 ! A60   A(25,24,51)           120.0849         estimate D2E/DX2                !
 ! A61   A(24,25,26)           123.6427         estimate D2E/DX2                !
 ! A62   A(24,25,52)           121.5926         estimate D2E/DX2                !
 ! A63   A(26,25,52)           114.7635         estimate D2E/DX2                !
 ! A64   A(25,26,27)           118.9037         estimate D2E/DX2                !
 ! A65   A(25,26,40)           122.3246         estimate D2E/DX2                !
 ! A66   A(27,26,40)           118.6968         estimate D2E/DX2                !
 ! A67   A(26,27,28)           120.3288         estimate D2E/DX2                !
 ! A68   A(26,27,53)           120.7985         estimate D2E/DX2                !
 ! A69   A(28,27,53)           118.8693         estimate D2E/DX2                !
 ! A70   A(27,28,29)           115.525          estimate D2E/DX2                !
 ! A71   A(27,28,38)           121.7113         estimate D2E/DX2                !
 ! A72   A(29,28,38)           122.7637         estimate D2E/DX2                !
 ! A73   A(28,29,30)           117.6027         estimate D2E/DX2                !
 ! A74   A(29,30,31)           115.0965         estimate D2E/DX2                !
 ! A75   A(29,30,35)           122.8556         estimate D2E/DX2                !
 ! A76   A(31,30,35)           122.0474         estimate D2E/DX2                !
 ! A77   A(30,31,32)           119.9503         estimate D2E/DX2                !
 ! A78   A(30,31,54)           119.8275         estimate D2E/DX2                !
 ! A79   A(32,31,54)           120.2222         estimate D2E/DX2                !
 ! A80   A(31,32,33)           119.3411         estimate D2E/DX2                !
 ! A81   A(31,32,55)           120.2642         estimate D2E/DX2                !
 ! A82   A(33,32,55)           120.3945         estimate D2E/DX2                !
 ! A83   A(32,33,34)           120.5268         estimate D2E/DX2                !
 ! A84   A(32,33,56)           119.8628         estimate D2E/DX2                !
 ! A85   A(34,33,56)           119.6103         estimate D2E/DX2                !
 ! A86   A(33,34,35)           121.4881         estimate D2E/DX2                !
 ! A87   A(33,34,57)           116.5322         estimate D2E/DX2                !
 ! A88   A(35,34,57)           121.9797         estimate D2E/DX2                !
 ! A89   A(30,35,34)           116.6457         estimate D2E/DX2                !
 ! A90   A(30,35,36)           118.2915         estimate D2E/DX2                !
 ! A91   A(34,35,36)           125.0628         estimate D2E/DX2                !
 ! A92   A(35,36,37)           122.4003         estimate D2E/DX2                !
 ! A93   A(35,36,38)           119.9278         estimate D2E/DX2                !
 ! A94   A(37,36,38)           117.6226         estimate D2E/DX2                !
 ! A95   A(36,37,58)           114.9961         estimate D2E/DX2                !
 ! A96   A(36,37,59)           110.4293         estimate D2E/DX2                !
 ! A97   A(36,37,60)           110.4992         estimate D2E/DX2                !
 ! A98   A(58,37,59)           105.7887         estimate D2E/DX2                !
 ! A99   A(58,37,60)           105.9943         estimate D2E/DX2                !
 ! A100  A(59,37,60)           108.8358         estimate D2E/DX2                !
 ! A101  A(28,38,36)           118.5334         estimate D2E/DX2                !
 ! A102  A(28,38,39)           117.2978         estimate D2E/DX2                !
 ! A103  A(36,38,39)           124.1687         estimate D2E/DX2                !
 ! A104  A(38,39,40)           121.2745         estimate D2E/DX2                !
 ! A105  A(38,39,61)           121.5306         estimate D2E/DX2                !
 ! A106  A(40,39,61)           117.1938         estimate D2E/DX2                !
 ! A107  A(26,40,39)           120.6543         estimate D2E/DX2                !
 ! A108  A(26,40,62)           120.8842         estimate D2E/DX2                !
 ! A109  A(39,40,62)           118.4567         estimate D2E/DX2                !
 ! A110  A(20,41,23)            93.1057         estimate D2E/DX2                !
 ! D1    D(1,2,3,4)              1.1082         estimate D2E/DX2                !
 ! D2    D(1,2,3,10)          -177.495          estimate D2E/DX2                !
 ! D3    D(8,2,3,4)           -179.6014         estimate D2E/DX2                !
 ! D4    D(8,2,3,10)             1.7954         estimate D2E/DX2                !
 ! D5    D(1,2,8,9)           -179.137          estimate D2E/DX2                !
 ! D6    D(1,2,8,19)             1.4023         estimate D2E/DX2                !
 ! D7    D(3,2,8,9)              1.5466         estimate D2E/DX2                !
 ! D8    D(3,2,8,19)          -177.9141         estimate D2E/DX2                !
 ! D9    D(2,3,4,5)              6.1918         estimate D2E/DX2                !
 ! D10   D(2,3,4,42)          -117.078          estimate D2E/DX2                !
 ! D11   D(2,3,4,43)           125.2724         estimate D2E/DX2                !
 ! D12   D(10,3,4,5)          -175.3199         estimate D2E/DX2                !
 ! D13   D(10,3,4,42)           61.4103         estimate D2E/DX2                !
 ! D14   D(10,3,4,43)          -56.2394         estimate D2E/DX2                !
 ! D15   D(2,3,10,9)            -4.1994         estimate D2E/DX2                !
 ! D16   D(2,3,10,11)          171.8664         estimate D2E/DX2                !
 ! D17   D(4,3,10,9)           177.2296         estimate D2E/DX2                !
 ! D18   D(4,3,10,11)           -6.7046         estimate D2E/DX2                !
 ! D19   D(3,4,5,6)             -2.8411         estimate D2E/DX2                !
 ! D20   D(3,4,5,7)            177.8474         estimate D2E/DX2                !
 ! D21   D(42,4,5,6)           121.0995         estimate D2E/DX2                !
 ! D22   D(42,4,5,7)           -58.2121         estimate D2E/DX2                !
 ! D23   D(43,4,5,6)          -122.6916         estimate D2E/DX2                !
 ! D24   D(43,4,5,7)            57.9968         estimate D2E/DX2                !
 ! D25   D(4,5,6,44)            -2.3414         estimate D2E/DX2                !
 ! D26   D(7,5,6,44)           176.9762         estimate D2E/DX2                !
 ! D27   D(2,8,9,10)            -3.315          estimate D2E/DX2                !
 ! D28   D(19,8,9,10)          176.0914         estimate D2E/DX2                !
 ! D29   D(2,8,19,20)          176.433          estimate D2E/DX2                !
 ! D30   D(2,8,19,48)           -1.2866         estimate D2E/DX2                !
 ! D31   D(9,8,19,20)           -2.9265         estimate D2E/DX2                !
 ! D32   D(9,8,19,48)          179.354          estimate D2E/DX2                !
 ! D33   D(8,9,10,3)             4.2501         estimate D2E/DX2                !
 ! D34   D(8,9,10,11)         -172.3459         estimate D2E/DX2                !
 ! D35   D(3,10,11,12)        -176.7823         estimate D2E/DX2                !
 ! D36   D(3,10,11,16)          -4.718          estimate D2E/DX2                !
 ! D37   D(9,10,11,12)          -1.0299         estimate D2E/DX2                !
 ! D38   D(9,10,11,16)         171.0345         estimate D2E/DX2                !
 ! D39   D(10,11,12,13)        157.8            estimate D2E/DX2                !
 ! D40   D(16,11,12,13)        -15.8502         estimate D2E/DX2                !
 ! D41   D(10,11,16,14)       -149.9712         estimate D2E/DX2                !
 ! D42   D(10,11,16,17)         32.5425         estimate D2E/DX2                !
 ! D43   D(12,11,16,14)         23.2572         estimate D2E/DX2                !
 ! D44   D(12,11,16,17)       -154.2291         estimate D2E/DX2                !
 ! D45   D(11,12,13,14)          5.1606         estimate D2E/DX2                !
 ! D46   D(11,12,13,18)       -174.5336         estimate D2E/DX2                !
 ! D47   D(12,13,14,15)       -177.0622         estimate D2E/DX2                !
 ! D48   D(12,13,14,16)          8.7974         estimate D2E/DX2                !
 ! D49   D(18,13,14,15)          2.6087         estimate D2E/DX2                !
 ! D50   D(18,13,14,16)       -171.5317         estimate D2E/DX2                !
 ! D51   D(13,14,15,45)         10.1991         estimate D2E/DX2                !
 ! D52   D(13,14,15,46)       -112.7958         estimate D2E/DX2                !
 ! D53   D(13,14,15,47)        129.9555         estimate D2E/DX2                !
 ! D54   D(16,14,15,45)       -175.7272         estimate D2E/DX2                !
 ! D55   D(16,14,15,46)         61.278          estimate D2E/DX2                !
 ! D56   D(16,14,15,47)        -55.9707         estimate D2E/DX2                !
 ! D57   D(13,14,16,11)        -21.5359         estimate D2E/DX2                !
 ! D58   D(13,14,16,17)        156.0167         estimate D2E/DX2                !
 ! D59   D(15,14,16,11)        163.7988         estimate D2E/DX2                !
 ! D60   D(15,14,16,17)        -18.6485         estimate D2E/DX2                !
 ! D61   D(8,19,20,21)         -91.175          estimate D2E/DX2                !
 ! D62   D(8,19,20,41)          90.6661         estimate D2E/DX2                !
 ! D63   D(48,19,20,21)         86.6248         estimate D2E/DX2                !
 ! D64   D(48,19,20,41)        -91.5341         estimate D2E/DX2                !
 ! D65   D(19,20,21,22)       -178.0717         estimate D2E/DX2                !
 ! D66   D(19,20,21,49)          1.5459         estimate D2E/DX2                !
 ! D67   D(41,20,21,22)          0.2301         estimate D2E/DX2                !
 ! D68   D(41,20,21,49)        179.8478         estimate D2E/DX2                !
 ! D69   D(19,20,41,23)        177.8211         estimate D2E/DX2                !
 ! D70   D(21,20,41,23)         -0.6254         estimate D2E/DX2                !
 ! D71   D(20,21,22,23)          0.4287         estimate D2E/DX2                !
 ! D72   D(20,21,22,50)        179.6789         estimate D2E/DX2                !
 ! D73   D(49,21,22,23)       -179.1872         estimate D2E/DX2                !
 ! D74   D(49,21,22,50)          0.063          estimate D2E/DX2                !
 ! D75   D(21,22,23,24)        178.3845         estimate D2E/DX2                !
 ! D76   D(21,22,23,41)         -0.8771         estimate D2E/DX2                !
 ! D77   D(50,22,23,24)         -0.8601         estimate D2E/DX2                !
 ! D78   D(50,22,23,41)        179.8783         estimate D2E/DX2                !
 ! D79   D(22,23,24,25)         -5.0452         estimate D2E/DX2                !
 ! D80   D(22,23,24,51)        175.4779         estimate D2E/DX2                !
 ! D81   D(41,23,24,25)        174.1617         estimate D2E/DX2                !
 ! D82   D(41,23,24,51)         -5.3152         estimate D2E/DX2                !
 ! D83   D(22,23,41,20)          0.8575         estimate D2E/DX2                !
 ! D84   D(24,23,41,20)       -178.5035         estimate D2E/DX2                !
 ! D85   D(23,24,25,26)       -178.5138         estimate D2E/DX2                !
 ! D86   D(23,24,25,52)          1.9            estimate D2E/DX2                !
 ! D87   D(51,24,25,26)          0.9522         estimate D2E/DX2                !
 ! D88   D(51,24,25,52)       -178.634          estimate D2E/DX2                !
 ! D89   D(24,25,26,27)       -147.7826         estimate D2E/DX2                !
 ! D90   D(24,25,26,40)         35.4086         estimate D2E/DX2                !
 ! D91   D(52,25,26,27)         31.8292         estimate D2E/DX2                !
 ! D92   D(52,25,26,40)       -144.9796         estimate D2E/DX2                !
 ! D93   D(25,26,27,28)       -178.8466         estimate D2E/DX2                !
 ! D94   D(25,26,27,53)          1.8335         estimate D2E/DX2                !
 ! D95   D(40,26,27,28)         -1.9208         estimate D2E/DX2                !
 ! D96   D(40,26,27,53)        178.7593         estimate D2E/DX2                !
 ! D97   D(25,26,40,39)        178.8538         estimate D2E/DX2                !
 ! D98   D(25,26,40,62)         -0.3382         estimate D2E/DX2                !
 ! D99   D(27,26,40,39)          2.0387         estimate D2E/DX2                !
 ! D100  D(27,26,40,62)       -177.1532         estimate D2E/DX2                !
 ! D101  D(26,27,28,29)       -179.5201         estimate D2E/DX2                !
 ! D102  D(26,27,28,38)          0.4272         estimate D2E/DX2                !
 ! D103  D(53,27,28,29)         -0.1872         estimate D2E/DX2                !
 ! D104  D(53,27,28,38)        179.7601         estimate D2E/DX2                !
 ! D105  D(27,28,29,30)        178.3863         estimate D2E/DX2                !
 ! D106  D(38,28,29,30)         -1.5604         estimate D2E/DX2                !
 ! D107  D(27,28,38,36)       -179.1794         estimate D2E/DX2                !
 ! D108  D(27,28,38,39)          0.958          estimate D2E/DX2                !
 ! D109  D(29,28,38,36)          0.764          estimate D2E/DX2                !
 ! D110  D(29,28,38,39)       -179.0986         estimate D2E/DX2                !
 ! D111  D(28,29,30,31)       -178.8829         estimate D2E/DX2                !
 ! D112  D(28,29,30,35)          0.8683         estimate D2E/DX2                !
 ! D113  D(29,30,31,32)        179.5563         estimate D2E/DX2                !
 ! D114  D(29,30,31,54)         -0.4245         estimate D2E/DX2                !
 ! D115  D(35,30,31,32)         -0.197          estimate D2E/DX2                !
 ! D116  D(35,30,31,54)        179.8221         estimate D2E/DX2                !
 ! D117  D(29,30,35,34)       -179.4574         estimate D2E/DX2                !
 ! D118  D(29,30,35,36)          0.5918         estimate D2E/DX2                !
 ! D119  D(31,30,35,34)          0.2767         estimate D2E/DX2                !
 ! D120  D(31,30,35,36)       -179.6741         estimate D2E/DX2                !
 ! D121  D(30,31,32,33)         -0.0354         estimate D2E/DX2                !
 ! D122  D(30,31,32,55)       -179.8879         estimate D2E/DX2                !
 ! D123  D(54,31,32,33)        179.9454         estimate D2E/DX2                !
 ! D124  D(54,31,32,55)          0.0929         estimate D2E/DX2                !
 ! D125  D(31,32,33,34)          0.1744         estimate D2E/DX2                !
 ! D126  D(31,32,33,56)       -179.9061         estimate D2E/DX2                !
 ! D127  D(55,32,33,34)       -179.9733         estimate D2E/DX2                !
 ! D128  D(55,32,33,56)         -0.0538         estimate D2E/DX2                !
 ! D129  D(32,33,34,35)         -0.087          estimate D2E/DX2                !
 ! D130  D(32,33,34,57)        179.9236         estimate D2E/DX2                !
 ! D131  D(56,33,34,35)        179.9933         estimate D2E/DX2                !
 ! D132  D(56,33,34,57)          0.004          estimate D2E/DX2                !
 ! D133  D(33,34,35,30)         -0.1346         estimate D2E/DX2                !
 ! D134  D(33,34,35,36)        179.8125         estimate D2E/DX2                !
 ! D135  D(57,34,35,30)        179.8542         estimate D2E/DX2                !
 ! D136  D(57,34,35,36)         -0.1987         estimate D2E/DX2                !
 ! D137  D(30,35,36,37)       -178.789          estimate D2E/DX2                !
 ! D138  D(30,35,36,38)         -1.4045         estimate D2E/DX2                !
 ! D139  D(34,35,36,37)          1.2647         estimate D2E/DX2                !
 ! D140  D(34,35,36,38)        178.6492         estimate D2E/DX2                !
 ! D141  D(35,36,37,58)         -1.9721         estimate D2E/DX2                !
 ! D142  D(35,36,37,59)       -121.5771         estimate D2E/DX2                !
 ! D143  D(35,36,37,60)        117.9536         estimate D2E/DX2                !
 ! D144  D(38,36,37,58)       -179.4138         estimate D2E/DX2                !
 ! D145  D(38,36,37,59)         60.9812         estimate D2E/DX2                !
 ! D146  D(38,36,37,60)        -59.4881         estimate D2E/DX2                !
 ! D147  D(35,36,38,28)          0.7663         estimate D2E/DX2                !
 ! D148  D(35,36,38,39)       -179.3812         estimate D2E/DX2                !
 ! D149  D(37,36,38,28)        178.274          estimate D2E/DX2                !
 ! D150  D(37,36,38,39)         -1.8736         estimate D2E/DX2                !
 ! D151  D(28,38,39,40)         -0.8412         estimate D2E/DX2                !
 ! D152  D(28,38,39,61)        178.779          estimate D2E/DX2                !
 ! D153  D(36,38,39,40)        179.3047         estimate D2E/DX2                !
 ! D154  D(36,38,39,61)         -1.0751         estimate D2E/DX2                !
 ! D155  D(38,39,40,26)         -0.655          estimate D2E/DX2                !
 ! D156  D(38,39,40,62)        178.5562         estimate D2E/DX2                !
 ! D157  D(61,39,40,26)        179.709          estimate D2E/DX2                !
 ! D158  D(61,39,40,62)         -1.0798         estimate D2E/DX2                !
 --------------------------------------------------------------------------------
 Trust Radius=3.00D-01 FncErr=1.00D-07 GrdErr=1.00D-06 EigMax=2.50D+02 EigMin=1.00D-04
 Number of steps in this run=    345 maximum allowed number of steps=    372.
 GradGradGradGradGradGradGradGradGradGradGradGradGradGradGradGradGradGrad

 Stoichiometry    C29H21N3O5S4
 Framework group  C1[X(C29H21N3O5S4)]
 Deg. of freedom   180
 Full point group                 C1      NOp   1
 Largest Abelian subgroup         C1      NOp   1
 Largest concise Abelian subgroup C1      NOp   1
                         Standard orientation:                         
 ---------------------------------------------------------------------
 Center     Atomic      Atomic             Coordinates (Angstroms)
 Number     Number       Type             X           Y           Z
 ---------------------------------------------------------------------
      1          8           0        5.021977   -3.425635    0.472114
      2          6           0        4.723808   -2.261761    0.244329
      3          7           0        5.596365   -1.254832   -0.130042
      4          6           0        7.029729   -1.517673   -0.318075
      5          6           0        7.877661   -2.804514   -0.303161
      6          8           0        7.301162   -3.979431   -0.026243
      7          8           0        9.085482   -2.758950   -0.531895
      8          6           0        3.345553   -1.748989    0.357259
      9         16           0        3.263774   -0.091307   -0.050822
     10          6           0        5.015555    0.020759   -0.281965
     11          6           0        5.580605    1.236619   -0.490078
     12         16           0        4.691821    2.747977   -0.576672
     13          6           0        6.089533    3.728482   -0.176647
     14          7           0        7.192828    2.919914   -0.105240
     15          6           0        8.537325    3.335712    0.259985
     16          6           0        7.022660    1.618221   -0.531089
     17          8           0        7.935914    0.913440   -0.927603
     18         16           0        5.991940    5.372352    0.067509
     19          6           0        2.353328   -2.557917    0.750238
     20          6           0        1.024712   -2.106538    0.948180
     21          6           0        0.450661   -1.634506    2.108907
     22          6           0       -0.923962   -1.310786    1.942175
     23          6           0       -1.387138   -1.547866    0.658900
     24          6           0       -2.682281   -1.390456    0.093995
     25          6           0       -3.744409   -1.040509    0.837420
     26          6           0       -5.101404   -0.898522    0.299511
     27          6           0       -5.953528    0.050518    0.862439
     28          6           0       -7.261444    0.194529    0.388756
     29          8           0       -8.013151    1.167819    1.008372
     30          6           0       -9.298903    1.369678    0.551739
     31          6           0      -10.006396    2.386326    1.201401
     32          6           0      -11.307265    2.681246    0.815642
     33          6           0      -11.891778    1.958224   -0.217564
     34          6           0      -11.179821    0.937572   -0.864481
     35          6           0       -9.866232    0.614894   -0.496998
     36          7           0       -9.087469   -0.391643   -1.089016
     37          6           0       -9.574577   -1.207516   -2.195542
     38          6           0       -7.762541   -0.606066   -0.651419
     39          6           0       -6.904532   -1.574651   -1.186708
     40          6           0       -5.594100   -1.725701   -0.715300
     41         16           0       -0.109753   -2.145082   -0.331099
     42          1           0        7.521956   -0.899743    0.441552
     43          1           0        7.215759   -1.156673   -1.336184
     44          1           0        6.342169   -3.939622    0.192463
     45          1           0        8.572230    4.351397    0.654276
     46          1           0        9.195597    3.246296   -0.608619
     47          1           0        8.899660    2.647980    1.033331
     48          1           0        2.550561   -3.604932    0.969551
     49          1           0        0.988155   -1.529535    3.043412
     50          1           0       -1.543340   -0.930150    2.744465
     51          1           0       -2.798895   -1.571414   -0.973290
     52          1           0       -3.652031   -0.833003    1.899174
     53          1           0       -5.612321    0.697537    1.666987
     54          1           0       -9.535463    2.942796    2.006298
     55          1           0      -11.860891    3.471135    1.315564
     56          1           0      -12.909172    2.183037   -0.527467
     57          1           0      -11.697835    0.415256   -1.659486
     58          1           0      -10.599386   -0.999603   -2.505123
     59          1           0       -9.554215   -2.270350   -1.925477
     60          1           0       -8.952986   -1.056567   -3.086907
     61          1           0       -7.227073   -2.243469   -1.978812
     62          1           0       -4.975059   -2.508253   -1.147324
 ---------------------------------------------------------------------
 Rotational constants (GHZ):           0.1350549           0.0181372           0.0164203
 Standard basis: 6-311G(d,p) (5D, 7F)
 There are   937 symmetry adapted cartesian basis functions of A   symmetry.
 There are   896 symmetry adapted basis functions of A   symmetry.
   896 basis functions,  1536 primitive gaussians,   937 cartesian basis functions
   160 alpha electrons      160 beta electrons
       nuclear repulsion energy      4793.4982314109 Hartrees.
 NAtoms=   62 NActive=   62 NUniq=   62 SFac= 1.00D+00 NAtFMM=   60 NAOKFM=T Big=T
 Integral buffers will be    131072 words long.
 Raffenetti 2 integral format.
 Two-electron integral symmetry is turned on.
 One-electron integrals computed using PRISM.
 NBasis=   896 RedAO= T EigKep=  1.26D-04  NBF=   896
 NBsUse=   896 1.00D-06 EigRej= -1.00D+00 NBFU=   896
 ExpMin= 7.71D-02 ExpMax= 9.34D+04 ExpMxC= 3.17D+03 IAcc=3 IRadAn=         5 AccDes= 0.00D+00
 Harris functional with IExCor=  402 and IRadAn=       5 diagonalized for initial guess.
 HarFok:  IExCor=  402 AccDes= 0.00D+00 IRadAn=         5 IDoV= 1 UseB2=F ITyADJ=14
 ICtDFT=  3500011 ScaDFX=  1.000000  1.000000  1.000000  1.000000
 FoFCou: FMM=F IPFlag=           0 FMFlag=      100000 FMFlg1=        2001
         NFxFlg=           0 DoJE=T BraDBF=F KetDBF=T FulRan=T
         wScrn=  0.000000 ICntrl=       500 IOpCl=  0 I1Cent=   200000004 NGrid=           0
         NMat0=    1 NMatS0=      1 NMatT0=    0 NMatD0=    1 NMtDS0=    0 NMtDT0=    0
 Petite list used in FoFCou.
 Requested convergence on RMS density matrix=1.00D-08 within 128 cycles.
 Requested convergence on MAX density matrix=1.00D-06.
 Requested convergence on             energy=1.00D-06.
 No special actions if energy rises.
 Integral accuracy reduced to 1.0D-05 until final iterations.
 EnCoef did     1 forward-backward iterations
 Initial convergence to 1.0D-05 achieved.  Increase integral accuracy.
 SCF Done:  E(RB3LYP) =  -3251.31186276     A.U. after   16 cycles
            NFock= 16  Conv=0.81D-08     -V/T= 2.0025

 **********************************************************************

            Population analysis using the SCF Density.

 **********************************************************************

 Orbital symmetries:
       Occupied  (A) (A) (A) (A) (A) (A) (A) (A) (A) (A) (A) (A)
                 (A) (A) (A) (A) (A) (A) (A) (A) (A) (A) (A) (A)
                 (A) (A) (A) (A) (A) (A) (A) (A) (A) (A) (A) (A)
                 (A) (A) (A) (A) (A) (A) (A) (A) (A) (A) (A) (A)
                 (A) (A) (A) (A) (A) (A) (A) (A) (A) (A) (A) (A)
                 (A) (A) (A) (A) (A) (A) (A) (A) (A) (A) (A) (A)
                 (A) (A) (A) (A) (A) (A) (A) (A) (A) (A) (A) (A)
                 (A) (A) (A) (A) (A) (A) (A) (A) (A) (A) (A) (A)
                 (A) (A) (A) (A) (A) (A) (A) (A) (A) (A) (A) (A)
                 (A) (A) (A) (A) (A) (A) (A) (A) (A) (A) (A) (A)
                 (A) (A) (A) (A) (A) (A) (A) (A) (A) (A) (A) (A)
                 (A) (A) (A) (A) (A) (A) (A) (A) (A) (A) (A) (A)
                 (A) (A) (A) (A) (A) (A) (A) (A) (A) (A) (A) (A)
                 (A) (A) (A) (A)
       Virtual   (A) (A) (A) (A) (A) (A) (A) (A) (A) (A) (A) (A)
                 (A) (A) (A) (A) (A) (A) (A) (A) (A) (A) (A) (A)
                 (A) (A) (A) (A) (A) (A) (A) (A) (A) (A) (A) (A)
                 (A) (A) (A) (A) (A) (A) (A) (A) (A) (A) (A) (A)
                 (A) (A) (A) (A) (A) (A) (A) (A) (A) (A) (A) (A)
                 (A) (A) (A) (A) (A) (A) (A) (A) (A) (A) (A) (A)
                 (A) (A) (A) (A) (A) (A) (A) (A) (A) (A) (A) (A)
                 (A) (A) (A) (A) (A) (A) (A) (A) (A) (A) (A) (A)
                 (A) (A) (A) (A) (A) (A) (A) (A) (A) (A) (A) (A)
                 (A) (A) (A) (A) (A) (A) (A) (A) (A) (A) (A) (A)
                 (A) (A) (A) (A) (A) (A) (A) (A) (A) (A) (A) (A)
                 (A) (A) (A) (A) (A) (A) (A) (A) (A) (A) (A) (A)
                 (A) (A) (A) (A) (A) (A) (A) (A) (A) (A) (A) (A)
                 (A) (A) (A) (A) (A) (A) (A) (A) (A) (A) (A) (A)
                 (A) (A) (A) (A) (A) (A) (A) (A) (A) (A) (A) (A)
                 (A) (A) (A) (A) (A) (A) (A) (A) (A) (A) (A) (A)
                 (A) (A) (A) (A) (A) (A) (A) (A) (A) (A) (A) (A)
                 (A) (A) (A) (A) (A) (A) (A) (A) (A) (A) (A) (A)
                 (A) (A) (A) (A) (A) (A) (A) (A) (A) (A) (A) (A)
                 (A) (A) (A) (A) (A) (A) (A) (A) (A) (A) (A) (A)
                 (A) (A) (A) (A) (A) (A) (A) (A) (A) (A) (A) (A)
                 (A) (A) (A) (A) (A) (A) (A) (A) (A) (A) (A) (A)
                 (A) (A) (A) (A) (A) (A) (A) (A) (A) (A) (A) (A)
                 (A) (A) (A) (A) (A) (A) (A) (A) (A) (A) (A) (A)
                 (A) (A) (A) (A) (A) (A) (A) (A) (A) (A) (A) (A)
                 (A) (A) (A) (A) (A) (A) (A) (A) (A) (A) (A) (A)
                 (A) (A) (A) (A) (A) (A) (A) (A) (A) (A) (A) (A)
                 (A) (A) (A) (A) (A) (A) (A) (A) (A) (A) (A) (A)
                 (A) (A) (A) (A) (A) (A) (A) (A) (A) (A) (A) (A)
                 (A) (A) (A) (A) (A) (A) (A) (A) (A) (A) (A) (A)
                 (A) (A) (A) (A) (A) (A) (A) (A) (A) (A) (A) (A)
                 (A) (A) (A) (A) (A) (A) (A) (A) (A) (A) (A) (A)
                 (A) (A) (A) (A) (A) (A) (A) (A) (A) (A) (A) (A)
                 (A) (A) (A) (A) (A) (A) (A) (A) (A) (A) (A) (A)
                 (A) (A) (A) (A) (A) (A) (A) (A) (A) (A) (A) (A)
                 (A) (A) (A) (A) (A) (A) (A) (A) (A) (A) (A) (A)
                 (A) (A) (A) (A) (A) (A) (A) (A) (A) (A) (A) (A)
                 (A) (A) (A) (A) (A) (A) (A) (A) (A) (A) (A) (A)
                 (A) (A) (A) (A) (A) (A) (A) (A) (A) (A) (A) (A)
                 (A) (A) (A) (A) (A) (A) (A) (A) (A) (A) (A) (A)
                 (A) (A) (A) (A) (A) (A) (A) (A) (A) (A) (A) (A)
                 (A) (A) (A) (A) (A) (A) (A) (A) (A) (A) (A) (A)
                 (A) (A) (A) (A) (A) (A) (A) (A) (A) (A) (A) (A)
                 (A) (A) (A) (A) (A) (A) (A) (A) (A) (A) (A) (A)
                 (A) (A) (A) (A) (A) (A) (A) (A) (A) (A) (A) (A)
                 (A) (A) (A) (A) (A) (A) (A) (A) (A) (A) (A) (A)
                 (A) (A) (A) (A) (A) (A) (A) (A) (A) (A) (A) (A)
                 (A) (A) (A) (A) (A) (A) (A) (A) (A) (A) (A) (A)
                 (A) (A) (A) (A) (A) (A) (A) (A) (A) (A) (A) (A)
                 (A) (A) (A) (A) (A) (A) (A) (A) (A) (A) (A) (A)
                 (A) (A) (A) (A) (A) (A) (A) (A) (A) (A) (A) (A)
                 (A) (A) (A) (A) (A) (A) (A) (A) (A) (A) (A) (A)
                 (A) (A) (A) (A) (A) (A) (A) (A) (A) (A) (A) (A)
                 (A) (A) (A) (A) (A) (A) (A) (A) (A) (A) (A) (A)
                 (A) (A) (A) (A) (A) (A) (A) (A) (A) (A) (A) (A)
                 (A) (A) (A) (A) (A) (A) (A) (A) (A) (A) (A) (A)
                 (A) (A) (A) (A) (A) (A) (A) (A) (A) (A) (A) (A)
                 (A) (A) (A) (A) (A) (A) (A) (A) (A) (A) (A) (A)
                 (A) (A) (A) (A) (A) (A) (A) (A) (A) (A) (A) (A)
                 (A) (A) (A) (A) (A) (A) (A) (A) (A) (A) (A) (A)
                 (A) (A) (A) (A) (A) (A) (A) (A) (A) (A) (A) (A)
                 (A) (A) (A) (A)
 The electronic state is 1-A.
 Alpha  occ. eigenvalues --  -88.92041 -88.91233 -88.89376 -88.83925 -19.17611
 Alpha  occ. eigenvalues --  -19.15552 -19.13693 -19.12825 -19.09491 -14.42869
 Alpha  occ. eigenvalues --  -14.41221 -14.36742 -10.33955 -10.32773 -10.31914
 Alpha  occ. eigenvalues --  -10.31424 -10.30997 -10.25702 -10.25544 -10.25031
 Alpha  occ. eigenvalues --  -10.24647 -10.24527 -10.23750 -10.23695 -10.23351
 Alpha  occ. eigenvalues --  -10.22886 -10.22380 -10.22282 -10.22133 -10.19903
 Alpha  occ. eigenvalues --  -10.19334 -10.19117 -10.19110 -10.19044 -10.18947
 Alpha  occ. eigenvalues --  -10.18509 -10.18419 -10.18338 -10.18018 -10.17901
 Alpha  occ. eigenvalues --  -10.17523  -8.00782  -7.99931  -7.98143  -7.92601
 Alpha  occ. eigenvalues --   -5.97139  -5.96755  -5.96294  -5.96208  -5.95897
 Alpha  occ. eigenvalues --   -5.95362  -5.94427  -5.94036  -5.93740  -5.88983
 Alpha  occ. eigenvalues --   -5.88554  -5.88055  -1.12021  -1.10260  -1.09967
 Alpha  occ. eigenvalues --   -1.07858  -1.03049  -1.02234  -0.99729  -0.98035
 Alpha  occ. eigenvalues --   -0.92144  -0.89893  -0.88437  -0.88217  -0.85660
 Alpha  occ. eigenvalues --   -0.83655  -0.82327  -0.80425  -0.78293  -0.77964
 Alpha  occ. eigenvalues --   -0.77366  -0.76644  -0.76190  -0.75535  -0.74700
 Alpha  occ. eigenvalues --   -0.74444  -0.72470  -0.69871  -0.68558  -0.67085
 Alpha  occ. eigenvalues --   -0.66424  -0.64234  -0.63412  -0.62885  -0.62615
 Alpha  occ. eigenvalues --   -0.61485  -0.60769  -0.59914  -0.58576  -0.57327
 Alpha  occ. eigenvalues --   -0.56097  -0.55389  -0.54695  -0.54173  -0.53699
 Alpha  occ. eigenvalues --   -0.53274  -0.52525  -0.52009  -0.51086  -0.50796
 Alpha  occ. eigenvalues --   -0.50025  -0.49052  -0.48583  -0.48524  -0.47764
 Alpha  occ. eigenvalues --   -0.47409  -0.47303  -0.46085  -0.45743  -0.45700
 Alpha  occ. eigenvalues --   -0.45060  -0.44946  -0.44720  -0.44128  -0.44025
 Alpha  occ. eigenvalues --   -0.43832  -0.43634  -0.42936  -0.42657  -0.42004
 Alpha  occ. eigenvalues --   -0.41740  -0.41427  -0.40859  -0.40608  -0.40316
 Alpha  occ. eigenvalues --   -0.40129  -0.39730  -0.39187  -0.39011  -0.38894
 Alpha  occ. eigenvalues --   -0.38591  -0.37427  -0.37294  -0.37190  -0.36795
 Alpha  occ. eigenvalues --   -0.36399  -0.35834  -0.34902  -0.34097  -0.32619
 Alpha  occ. eigenvalues --   -0.31912  -0.31530  -0.30079  -0.29828  -0.28822
 Alpha  occ. eigenvalues --   -0.27801  -0.27650  -0.27474  -0.27296  -0.27075
 Alpha  occ. eigenvalues --   -0.25242  -0.24523  -0.24035  -0.22351  -0.18466
 Alpha virt. eigenvalues --   -0.11804  -0.08465  -0.07111  -0.04741  -0.04232
 Alpha virt. eigenvalues --   -0.02572  -0.01888  -0.01394  -0.00346  -0.00028
 Alpha virt. eigenvalues --   -0.00000   0.00561   0.00800   0.01943   0.02634
 Alpha virt. eigenvalues --    0.02726   0.02998   0.03803   0.04518   0.04695
 Alpha virt. eigenvalues --    0.05622   0.05739   0.05883   0.06007   0.06971
 Alpha virt. eigenvalues --    0.07136   0.07403   0.07598   0.08443   0.08637
 Alpha virt. eigenvalues --    0.08991   0.09756   0.09801   0.09974   0.10163
 Alpha virt. eigenvalues --    0.11185   0.11330   0.11414   0.11537   0.12068
 Alpha virt. eigenvalues --    0.12565   0.13363   0.14026   0.14301   0.14438
 Alpha virt. eigenvalues --    0.14949   0.15065   0.15772   0.16174   0.17116
 Alpha virt. eigenvalues --    0.17293   0.17411   0.17552   0.17710   0.18653
 Alpha virt. eigenvalues --    0.19602   0.20004   0.20071   0.20792   0.21298
 Alpha virt. eigenvalues --    0.21508   0.21740   0.22181   0.23211   0.23726
 Alpha virt. eigenvalues --    0.23821   0.24668   0.25782   0.25949   0.26410
 Alpha virt. eigenvalues --    0.27010   0.27273   0.27790   0.27839   0.28518
 Alpha virt. eigenvalues --    0.28675   0.29333   0.29622   0.29685   0.30145
 Alpha virt. eigenvalues --    0.30509   0.30664   0.31164   0.31551   0.32056
 Alpha virt. eigenvalues --    0.32498   0.32911   0.33255   0.33886   0.34762
 Alpha virt. eigenvalues --    0.34916   0.35401   0.35537   0.36418   0.36693
 Alpha virt. eigenvalues --    0.36894   0.37282   0.37313   0.37518   0.37845
 Alpha virt. eigenvalues --    0.37982   0.38047   0.38381   0.39017   0.39224
 Alpha virt. eigenvalues --    0.39468   0.39802   0.39972   0.40302   0.40516
 Alpha virt. eigenvalues --    0.40692   0.40962   0.41384   0.41810   0.42172
 Alpha virt. eigenvalues --    0.42566   0.42714   0.42974   0.43049   0.43864
 Alpha virt. eigenvalues --    0.43902   0.44087   0.44823   0.45056   0.45178
 Alpha virt. eigenvalues --    0.45718   0.46284   0.46494   0.46619   0.46970
 Alpha virt. eigenvalues --    0.47075   0.47852   0.48144   0.48606   0.49205
 Alpha virt. eigenvalues --    0.49487   0.49851   0.50551   0.50957   0.51096
 Alpha virt. eigenvalues --    0.51270   0.51748   0.51942   0.52347   0.52546
 Alpha virt. eigenvalues --    0.53097   0.53118   0.53860   0.54045   0.54223
 Alpha virt. eigenvalues --    0.55322   0.55440   0.55642   0.55940   0.56093
 Alpha virt. eigenvalues --    0.56476   0.56857   0.57493   0.58054   0.58533
 Alpha virt. eigenvalues --    0.58846   0.59040   0.59216   0.59354   0.59553
 Alpha virt. eigenvalues --    0.59859   0.60158   0.60573   0.60653   0.60736
 Alpha virt. eigenvalues --    0.60782   0.61606   0.62171   0.62288   0.62834
 Alpha virt. eigenvalues --    0.63046   0.63644   0.63981   0.64165   0.64787
 Alpha virt. eigenvalues --    0.65090   0.65334   0.65982   0.66563   0.67140
 Alpha virt. eigenvalues --    0.67479   0.67949   0.68609   0.69365   0.69490
 Alpha virt. eigenvalues --    0.69715   0.70631   0.71259   0.71573   0.72178
 Alpha virt. eigenvalues --    0.72305   0.72860   0.73316   0.73562   0.74019
 Alpha virt. eigenvalues --    0.74446   0.75096   0.75297   0.75403   0.75732
 Alpha virt. eigenvalues --    0.76019   0.76401   0.76954   0.77252   0.77732
 Alpha virt. eigenvalues --    0.77977   0.78092   0.78372   0.78624   0.79143
 Alpha virt. eigenvalues --    0.79594   0.80189   0.80509   0.80804   0.81174
 Alpha virt. eigenvalues --    0.81659   0.82646   0.82969   0.83577   0.83863
 Alpha virt. eigenvalues --    0.84769   0.85246   0.85637   0.85762   0.86688
 Alpha virt. eigenvalues --    0.86944   0.87746   0.88084   0.88550   0.88984
 Alpha virt. eigenvalues --    0.89399   0.89700   0.90176   0.90718   0.91296
 Alpha virt. eigenvalues --    0.91911   0.92319   0.92944   0.93631   0.94164
 Alpha virt. eigenvalues --    0.94552   0.95645   0.95945   0.96391   0.96989
 Alpha virt. eigenvalues --    0.97029   0.97808   0.98367   0.98963   0.99322
 Alpha virt. eigenvalues --    0.99368   0.99712   1.00705   1.01043   1.01148
 Alpha virt. eigenvalues --    1.01871   1.01948   1.02542   1.03585   1.04098
 Alpha virt. eigenvalues --    1.04591   1.04766   1.05735   1.06172   1.06781
 Alpha virt. eigenvalues --    1.07080   1.08387   1.09179   1.09483   1.09975
 Alpha virt. eigenvalues --    1.10661   1.11538   1.11851   1.12295   1.13011
 Alpha virt. eigenvalues --    1.13278   1.14268   1.14425   1.14697   1.16073
 Alpha virt. eigenvalues --    1.16617   1.16686   1.17681   1.18565   1.19109
 Alpha virt. eigenvalues --    1.19960   1.20920   1.21205   1.22017   1.22903
 Alpha virt. eigenvalues --    1.24559   1.24955   1.26034   1.27771   1.28632
 Alpha virt. eigenvalues --    1.28964   1.29305   1.30133   1.30496   1.31133
 Alpha virt. eigenvalues --    1.31810   1.32599   1.33234   1.33556   1.34354
 Alpha virt. eigenvalues --    1.35507   1.36883   1.37453   1.38309   1.38747
 Alpha virt. eigenvalues --    1.39416   1.40184   1.41066   1.41368   1.41682
 Alpha virt. eigenvalues --    1.42414   1.42965   1.43170   1.43517   1.43659
 Alpha virt. eigenvalues --    1.45473   1.45852   1.46314   1.46790   1.47164
 Alpha virt. eigenvalues --    1.47324   1.47722   1.47869   1.48548   1.48992
 Alpha virt. eigenvalues --    1.49715   1.50214   1.50882   1.51387   1.51647
 Alpha virt. eigenvalues --    1.52352   1.52776   1.53035   1.53308   1.54055
 Alpha virt. eigenvalues --    1.54433   1.54892   1.55054   1.55250   1.56183
 Alpha virt. eigenvalues --    1.56352   1.56732   1.57276   1.57511   1.57891
 Alpha virt. eigenvalues --    1.58790   1.59263   1.59753   1.60000   1.60440
 Alpha virt. eigenvalues --    1.60743   1.61052   1.61485   1.62417   1.62697
 Alpha virt. eigenvalues --    1.63206   1.63678   1.63746   1.63920   1.64482
 Alpha virt. eigenvalues --    1.65096   1.65275   1.66575   1.67222   1.67750
 Alpha virt. eigenvalues --    1.68551   1.68869   1.69961   1.70075   1.70159
 Alpha virt. eigenvalues --    1.70584   1.71173   1.71730   1.73014   1.73175
 Alpha virt. eigenvalues --    1.73804   1.74790   1.75102   1.75556   1.75837
 Alpha virt. eigenvalues --    1.76177   1.77253   1.77903   1.78280   1.78912
 Alpha virt. eigenvalues --    1.79559   1.79737   1.80112   1.81145   1.81688
 Alpha virt. eigenvalues --    1.82499   1.82729   1.83294   1.83945   1.84198
 Alpha virt. eigenvalues --    1.84496   1.85997   1.86406   1.87506   1.87938
 Alpha virt. eigenvalues --    1.88103   1.88384   1.88765   1.89225   1.89779
 Alpha virt. eigenvalues --    1.90164   1.90475   1.90797   1.91209   1.91744
 Alpha virt. eigenvalues --    1.92525   1.92573   1.93144   1.93562   1.94693
 Alpha virt. eigenvalues --    1.95169   1.96164   1.96419   1.97132   1.98219
 Alpha virt. eigenvalues --    1.98412   1.98715   1.99187   1.99832   2.00538
 Alpha virt. eigenvalues --    2.00845   2.01197   2.01425   2.02008   2.02669
 Alpha virt. eigenvalues --    2.03722   2.04761   2.05153   2.05233   2.06631
 Alpha virt. eigenvalues --    2.07292   2.07537   2.09190   2.10024   2.10974
 Alpha virt. eigenvalues --    2.11798   2.11967   2.12279   2.12919   2.13477
 Alpha virt. eigenvalues --    2.16393   2.17081   2.18206   2.19086   2.20945
 Alpha virt. eigenvalues --    2.21618   2.22545   2.23791   2.24811   2.25129
 Alpha virt. eigenvalues --    2.25686   2.26260   2.26587   2.27853   2.28331
 Alpha virt. eigenvalues --    2.28672   2.28792   2.29366   2.30681   2.31706
 Alpha virt. eigenvalues --    2.33084   2.33649   2.34189   2.35107   2.35585
 Alpha virt. eigenvalues --    2.36236   2.38172   2.38481   2.39083   2.39422
 Alpha virt. eigenvalues --    2.40308   2.40729   2.41485   2.42875   2.44234
 Alpha virt. eigenvalues --    2.44821   2.45044   2.45831   2.46526   2.46605
 Alpha virt. eigenvalues --    2.47365   2.48608   2.49223   2.51731   2.51878
 Alpha virt. eigenvalues --    2.51961   2.52023   2.52582   2.53349   2.55517
 Alpha virt. eigenvalues --    2.56436   2.56791   2.57593   2.58029   2.58041
 Alpha virt. eigenvalues --    2.58605   2.59030   2.60059   2.60125   2.60978
 Alpha virt. eigenvalues --    2.61631   2.62395   2.62631   2.64117   2.64223
 Alpha virt. eigenvalues --    2.64823   2.65208   2.65987   2.66253   2.67062
 Alpha virt. eigenvalues --    2.67588   2.68023   2.68457   2.69567   2.70256
 Alpha virt. eigenvalues --    2.70801   2.71693   2.72446   2.72708   2.73143
 Alpha virt. eigenvalues --    2.74574   2.74844   2.75193   2.75796   2.76268
 Alpha virt. eigenvalues --    2.77767   2.79419   2.80067   2.80154   2.80567
 Alpha virt. eigenvalues --    2.80725   2.81497   2.83153   2.83749   2.84597
 Alpha virt. eigenvalues --    2.85477   2.85849   2.87499   2.88014   2.88783
 Alpha virt. eigenvalues --    2.88865   2.89491   2.89571   2.90495   2.90962
 Alpha virt. eigenvalues --    2.91679   2.92607   2.93671   2.95066   2.96650
 Alpha virt. eigenvalues --    2.98637   3.00501   3.01708   3.02474   3.03082
 Alpha virt. eigenvalues --    3.04690   3.05534   3.06153   3.06392   3.06433
 Alpha virt. eigenvalues --    3.07075   3.07571   3.08272   3.08969   3.10660
 Alpha virt. eigenvalues --    3.12773   3.14525   3.16918   3.17060   3.17501
 Alpha virt. eigenvalues --    3.18516   3.20861   3.21231   3.22299   3.22524
 Alpha virt. eigenvalues --    3.26413   3.27249   3.27712   3.29781   3.30524
 Alpha virt. eigenvalues --    3.30778   3.31722   3.33485   3.34397   3.34727
 Alpha virt. eigenvalues --    3.35459   3.36571   3.37216   3.38531   3.42201
 Alpha virt. eigenvalues --    3.43114   3.43888   3.44389   3.46832   3.47096
 Alpha virt. eigenvalues --    3.47634   3.48770   3.52157   3.52399   3.52870
 Alpha virt. eigenvalues --    3.53969   3.54371   3.55128   3.58859   3.59314
 Alpha virt. eigenvalues --    3.61395   3.61442   3.64027   3.65859   3.66433
 Alpha virt. eigenvalues --    3.68048   3.72611   3.72831   3.73566   3.74756
 Alpha virt. eigenvalues --    3.76682   3.77077   3.78263   3.81142   3.89343
 Alpha virt. eigenvalues --    3.90189   3.91546   3.91753   3.92498   3.95099
 Alpha virt. eigenvalues --    3.97550   4.00134   4.01547   4.01640   4.05507
 Alpha virt. eigenvalues --    4.06493   4.09296   4.10990   4.12282   4.13611
 Alpha virt. eigenvalues --    4.17918   4.18275   4.24429   4.27402   4.34224
 Alpha virt. eigenvalues --    4.61810   4.77599   4.79419   4.82004   4.82912
 Alpha virt. eigenvalues --    4.84178   4.84357   4.87207   4.87725   4.92004
 Alpha virt. eigenvalues --    4.92556   4.92582   4.96763   4.99799   5.11041
 Alpha virt. eigenvalues --    5.12118   5.13653   5.29746   5.31188   5.51384
 Alpha virt. eigenvalues --    5.64809   5.71930   5.87968   6.01563   7.70153
 Alpha virt. eigenvalues --    7.77318   7.80227   7.83095  17.16468  17.18707
 Alpha virt. eigenvalues --   17.20183  17.22515  17.27143  17.37721  17.40495
 Alpha virt. eigenvalues --   17.43909  17.45982  17.46759  17.48954  17.49590
 Alpha virt. eigenvalues --   23.41648  23.44388  23.49036  23.49831  23.54626
 Alpha virt. eigenvalues --   23.64859  23.70381  23.78840  23.79015  23.80521
 Alpha virt. eigenvalues --   23.80909  23.86559  23.87585  23.87778  23.88287
 Alpha virt. eigenvalues --   23.89496  23.91060  23.91571  24.02486  24.04187
 Alpha virt. eigenvalues --   24.05587  24.06263  24.07206  24.07478  24.11516
 Alpha virt. eigenvalues --   24.14636  24.17756  24.20058  24.22161  35.47217
 Alpha virt. eigenvalues --   35.48170  35.55257  49.87419  49.89963  49.96985
 Alpha virt. eigenvalues --   49.97374  50.01059 188.81757 188.89898 188.92461
 Alpha virt. eigenvalues --  188.95857
          Condensed to atoms (all electrons):
 Mulliken charges:
               1
     1  O   -0.404570
     2  C    0.597852
     3  N   -0.503282
     4  C   -0.125356
     5  C    0.338272
     6  O   -0.334753
     7  O   -0.332195
     8  C   -0.372278
     9  S    0.353842
    10  C    0.121070
    11  C   -0.345206
    12  S    0.341849
    13  C   -0.128065
    14  N   -0.359375
    15  C   -0.149848
    16  C    0.495066
    17  O   -0.322897
    18  S   -0.096943
    19  C    0.011610
    20  C   -0.343143
    21  C   -0.012533
    22  C   -0.027106
    23  C   -0.245503
    24  C   -0.058962
    25  C   -0.082828
    26  C   -0.055847
    27  C   -0.097563
    28  C    0.128329
    29  O   -0.340175
    30  C    0.120680
    31  C   -0.106588
    32  C   -0.096514
    33  C   -0.095251
    34  C   -0.112175
    35  C    0.265319
    36  N   -0.580649
    37  C   -0.164222
    38  C    0.277640
    39  C   -0.123858
    40  C   -0.066151
    41  S    0.307354
    42  H    0.168091
    43  H    0.188726
    44  H    0.284469
    45  H    0.164889
    46  H    0.150716
    47  H    0.135933
    48  H    0.155446
    49  H    0.101841
    50  H    0.099057
    51  H    0.104301
    52  H    0.106430
    53  H    0.096678
    54  H    0.105452
    55  H    0.092539
    56  H    0.090730
    57  H    0.101912
    58  H    0.125911
    59  H    0.127269
    60  H    0.127087
    61  H    0.107931
    62  H    0.089546
 Sum of Mulliken charges =  -0.00000
 Mulliken charges with hydrogens summed into heavy atoms:
               1
     1  O   -0.404570
     2  C    0.597852
     3  N   -0.503282
     4  C    0.231460
     5  C    0.338272
     6  O   -0.050284
     7  O   -0.332195
     8  C   -0.372278
     9  S    0.353842
    10  C    0.121070
    11  C   -0.345206
    12  S    0.341849
    13  C   -0.128065
    14  N   -0.359375
    15  C    0.301689
    16  C    0.495066
    17  O   -0.322897
    18  S   -0.096943
    19  C    0.167056
    20  C   -0.343143
    21  C    0.089308
    22  C    0.071951
    23  C   -0.245503
    24  C    0.045339
    25  C    0.023601
    26  C   -0.055847
    27  C   -0.000886
    28  C    0.128329
    29  O   -0.340175
    30  C    0.120680
    31  C   -0.001136
    32  C   -0.003975
    33  C   -0.004522
    34  C   -0.010263
    35  C    0.265319
    36  N   -0.580649
    37  C    0.216045
    38  C    0.277640
    39  C   -0.015927
    40  C    0.023395
    41  S    0.307354
 Electronic spatial extent (au):  <R**2>=          59033.3757
 Charge=             -0.0000 electrons
 Dipole moment (field-independent basis, Debye):
    X=             -8.4063    Y=              0.5914    Z=              0.3205  Tot=              8.4331
 Quadrupole moment (field-independent basis, Debye-Ang):
   XX=           -288.8658   YY=           -295.1032   ZZ=           -253.5164
   XY=             41.1668   XZ=             31.1521   YZ=              6.8587
 Traceless Quadrupole moment (field-independent basis, Debye-Ang):
   XX=             -9.7040   YY=            -15.9414   ZZ=             25.6454
   XY=             41.1668   XZ=             31.1521   YZ=              6.8587
 Octapole moment (field-independent basis, Debye-Ang**2):
  XXX=          -1057.4399  YYY=            -46.6051  ZZZ=              2.3446  XYY=           -192.8646
  XXY=            361.3850  XXZ=            -75.4336  XZZ=             -2.2460  YZZ=            -23.4329
  YYZ=              2.9715  XYZ=            -69.3895
 Hexadecapole moment (field-independent basis, Debye-Ang**3):
 XXXX=         -71224.1325 YYYY=          -9552.6211 ZZZZ=          -1364.7876 XXXY=           3952.5171
 XXXZ=           3268.3739 YYYX=           -126.3458 YYYZ=             88.3833 ZZZX=             47.5945
 ZZZY=             32.3985 XXYY=         -14433.7721 XXZZ=         -11573.1244 YYZZ=          -1663.7709
 XXYZ=            559.4877 YYXZ=             -5.3270 ZZXY=            -56.2956
 N-N= 4.793498231411D+03 E-N=-1.723864247572D+04  KE= 3.243177547670D+03
 Calling FoFJK, ICntrl=      2127 FMM=T ISym2X=0 I1Cent= 0 IOpClX= 0 NMat=1 NMatS=1 NMatT=0.
 ***** Axes restored to original set *****
 -------------------------------------------------------------------
 Center     Atomic                   Forces (Hartrees/Bohr)
 Number     Number              X              Y              Z
 -------------------------------------------------------------------
      1        8           0.015319701    0.010445314    0.002217228
      2        6          -0.001718338    0.011423524   -0.003705424
      3        7           0.022182210   -0.013086325    0.016350514
      4        6          -0.030363085    0.006908299   -0.016074993
      5        6           0.004048907   -0.047088822    0.018673712
      6        8          -0.028263961   -0.013608226   -0.005518546
      7        8           0.034716814    0.036941240    0.003402535
      8        6           0.003967265   -0.027409322    0.011878566
      9       16          -0.002586526    0.024136269   -0.009121299
     10        6           0.000849397   -0.007878849    0.003358621
     11        6          -0.014211645   -0.008151803   -0.008090947
     12       16           0.015888756    0.016106469    0.004411795
     13        6          -0.001266027    0.005880254   -0.016276024
     14        7          -0.000575594    0.009283506   -0.011712694
     15        6          -0.008818909   -0.008808553   -0.005746323
     16        6          -0.005198925   -0.020343467    0.033903668
     17        8           0.001930144    0.011536937   -0.018434888
     18       16           0.000365735   -0.010123135    0.010001133
     19        6          -0.013265701   -0.016983220   -0.003540445
     20        6           0.023521898    0.015374733   -0.011484195
     21        6           0.003657439    0.006811416    0.005088573
     22        6          -0.003161683   -0.004310113    0.000275153
     23        6          -0.001236836   -0.010453273   -0.014322395
     24        6           0.010073965    0.006857324    0.001704189
     25        6           0.003459911    0.012138393    0.010865335
     26        6          -0.002154330   -0.011350678    0.000946289
     27        6           0.010557113    0.013848985    0.007665752
     28        6          -0.007055141   -0.011563695   -0.015430211
     29        8          -0.001208097   -0.001404020    0.007644672
     30        6           0.007047313    0.009832431   -0.010585868
     31        6          -0.004150986   -0.005544893    0.005693602
     32        6           0.003142866    0.005405532    0.003413735
     33        6          -0.001633030   -0.002812668   -0.000307792
     34        6           0.003684243    0.005509049   -0.000413687
     35        6           0.000914665    0.000411657   -0.007341106
     36        7          -0.002128035   -0.001860167    0.009280557
     37        6          -0.001830992   -0.002557439    0.004286661
     38        6           0.005372179    0.008635976   -0.000209076
     39        6          -0.005036491   -0.005706763    0.001407303
     40        6           0.001723270    0.007921280    0.003384025
     41       16          -0.007537617    0.004247394    0.015859686
     42        1          -0.010706599    0.002002085    0.006591118
     43        1          -0.001492818   -0.004312309   -0.014546605
     44        1          -0.004322691    0.006906483   -0.006169325
     45        1           0.003477687    0.004480465    0.006166750
     46        1           0.001201686    0.000847701   -0.001699953
     47        1          -0.002343771    0.002274846    0.000674521
     48        1          -0.008191547   -0.002839315   -0.002517969
     49        1          -0.000958962    0.000049340    0.001005184
     50        1          -0.001125996    0.000145175    0.000737723
     51        1           0.001723799   -0.000070957   -0.002078882
     52        1          -0.003539533   -0.000912361   -0.001557702
     53        1           0.000851081    0.001639965    0.003033837
     54        1          -0.002420006   -0.003013879    0.002671170
     55        1          -0.001099830   -0.001676944    0.000859156
     56        1          -0.001652532   -0.002450632    0.000380550
     57        1          -0.002184281   -0.003488658   -0.000657860
     58        1           0.001277003    0.000154545   -0.009747780
     59        1          -0.002016081   -0.000436768   -0.000712787
     60        1           0.000357517   -0.002040684   -0.000353811
     61        1           0.002350021    0.002717913   -0.002907340
     62        1           0.001794013    0.001413436   -0.002567382
 -------------------------------------------------------------------
 Cartesian Forces:  Max     0.047088822 RMS     0.010281006

 GradGradGradGradGradGradGradGradGradGradGradGradGradGradGradGradGradGrad
 Berny optimization.
 FormGI is forming the generalized inverse of G from B-inverse, IUseBI=4.
 Internal  Forces:  Max     0.053777123 RMS     0.009290455
 Search for a local minimum.
 Step number   1 out of a maximum of  345
 All quantities printed in internal units (Hartrees-Bohrs-Radians)
 Mixed Optimization -- RFO/linear search
 Second derivative matrix not updated -- first step.
 ITU=  0
     Eigenvalues ---    0.00230   0.00774   0.00794   0.00917   0.00978
     Eigenvalues ---    0.01130   0.01208   0.01226   0.01261   0.01352
     Eigenvalues ---    0.01419   0.01526   0.01566   0.01582   0.01655
     Eigenvalues ---    0.01765   0.01770   0.01801   0.01829   0.01832
     Eigenvalues ---    0.01863   0.01878   0.01892   0.01910   0.01939
     Eigenvalues ---    0.01952   0.01987   0.02000   0.02005   0.02020
     Eigenvalues ---    0.02046   0.02054   0.02061   0.02079   0.02081
     Eigenvalues ---    0.02090   0.02093   0.02097   0.02099   0.02104
     Eigenvalues ---    0.02131   0.02137   0.02141   0.02171   0.02184
     Eigenvalues ---    0.02197   0.02231   0.02334   0.02399   0.02516
     Eigenvalues ---    0.02660   0.02845   0.02894   0.02913   0.06074
     Eigenvalues ---    0.06925   0.07233   0.07326   0.07845   0.12688
     Eigenvalues ---    0.14717   0.15994   0.15998   0.15998   0.15999
     Eigenvalues ---    0.16000   0.16000   0.16000   0.16000   0.16000
     Eigenvalues ---    0.16000   0.16000   0.16000   0.16000   0.16000
     Eigenvalues ---    0.16000   0.16000   0.16000   0.16000   0.16000
     Eigenvalues ---    0.22000   0.22000   0.22000   0.22002   0.22430
     Eigenvalues ---    0.22579   0.22585   0.22710   0.23499   0.24217
     Eigenvalues ---    0.24373   0.24489   0.24552   0.24619   0.24868
     Eigenvalues ---    0.24912   0.24931   0.24960   0.24969   0.24972
     Eigenvalues ---    0.24978   0.24989   0.24991   0.24991   0.24994
     Eigenvalues ---    0.24997   0.24998   0.24998   0.24999   0.24999
     Eigenvalues ---    0.24999   0.25000   0.25000   0.28264   0.28417
     Eigenvalues ---    0.29393   0.29577   0.32435   0.32436   0.33695
     Eigenvalues ---    0.33702   0.34002   0.34039   0.34071   0.34115
     Eigenvalues ---    0.34131   0.34409   0.34567   0.34749   0.34802
     Eigenvalues ---    0.34954   0.35072   0.35119   0.35125   0.35156
     Eigenvalues ---    0.35227   0.35284   0.35305   0.35312   0.35616
     Eigenvalues ---    0.35618   0.35673   0.35819   0.36149   0.37148
     Eigenvalues ---    0.37733   0.37767   0.40488   0.40950   0.41148
     Eigenvalues ---    0.41643   0.41696   0.42202   0.42327   0.42671
     Eigenvalues ---    0.42902   0.43962   0.44703   0.45016   0.45563
     Eigenvalues ---    0.45587   0.45609   0.45768   0.46307   0.46428
     Eigenvalues ---    0.47003   0.47065   0.47220   0.48078   0.48520
     Eigenvalues ---    0.48982   0.49238   0.50536   0.53600   0.56570
     Eigenvalues ---    0.57397   0.57721   0.91031   0.94126   0.95461
 RFO step:  Lambda=-7.97146747D-02 EMin= 2.30000000D-03
 Linear search not attempted -- first point.
 Maximum step size (   0.300) exceeded in Quadratic search.
    -- Step size scaled by   0.638
 Iteration  1 RMS(Cart)=  0.14418087 RMS(Int)=  0.00598706
 Iteration  2 RMS(Cart)=  0.02585098 RMS(Int)=  0.00020182
 Iteration  3 RMS(Cart)=  0.00038070 RMS(Int)=  0.00011984
 Iteration  4 RMS(Cart)=  0.00000019 RMS(Int)=  0.00011984
 Variable       Old X    -DE/DX   Delta X   Delta X   Delta X     New X
                                 (Linear)    (Quad)   (Total)
    R1        2.31088  -0.00612   0.00000  -0.00382  -0.00382   2.30705
    R2        2.61535   0.01838   0.00000   0.02140   0.02143   2.63678
    R3        2.78712   0.00340   0.00000   0.00514   0.00511   2.79223
    R4        2.77666   0.03759   0.00000   0.05480   0.05480   2.83146
    R5        2.66415   0.01145   0.00000   0.01447   0.01453   2.67868
    R6        2.91237   0.01766   0.00000   0.03098   0.03098   2.94335
    R7        2.07109  -0.00631   0.00000  -0.00957  -0.00957   2.06152
    R8        2.07136  -0.00636   0.00000  -0.00964  -0.00964   2.06172
    R9        2.52790  -0.02497   0.00000  -0.02426  -0.02426   2.50364
   R10        2.32461  -0.04717   0.00000  -0.03041  -0.03041   2.29420
   R11        1.86029  -0.00144   0.00000  -0.00157  -0.00157   1.85872
   R12        3.22979   0.01021   0.00000   0.01456   0.01451   3.24430
   R13        2.53062   0.00505   0.00000   0.00493   0.00493   2.53555
   R14        3.34579   0.00351   0.00000   0.00562   0.00563   3.35141
   R15        2.56398   0.01156   0.00000   0.01199   0.01199   2.57597
   R16        3.31734   0.01384   0.00000   0.02263   0.02265   3.33998
   R17        2.81995   0.00747   0.00000   0.01237   0.01237   2.83232
   R18        3.31377   0.00463   0.00000   0.00686   0.00685   3.32062
   R19        2.58840  -0.00039   0.00000  -0.00029  -0.00030   2.58810
   R20        3.14595  -0.01419   0.00000  -0.01869  -0.01869   3.12726
   R21        2.74755   0.00479   0.00000   0.00669   0.00669   2.75424
   R22        2.60803   0.01696   0.00000   0.01954   0.01954   2.62758
   R23        2.05998  -0.00286   0.00000  -0.00426  -0.00426   2.05571
   R24        2.06646  -0.00183   0.00000  -0.00275  -0.00275   2.06370
   R25        2.07210  -0.00304   0.00000  -0.00461  -0.00461   2.06748
   R26        2.30513  -0.01518   0.00000  -0.00937  -0.00937   2.29577
   R27        2.67791   0.04326   0.00000   0.05428   0.05428   2.73219
   R28        2.05558  -0.00032   0.00000  -0.00047  -0.00047   2.05511
   R29        2.60456  -0.00061   0.00000  -0.00081  -0.00080   2.60375
   R30        3.23196   0.01689   0.00000   0.02598   0.02598   3.25794
   R31        2.68726  -0.00244   0.00000  -0.00382  -0.00381   2.68345
   R32        2.04686  -0.00101   0.00000  -0.00148  -0.00148   2.04538
   R33        2.61680  -0.00238   0.00000  -0.00305  -0.00305   2.61375
   R34        2.04596  -0.00124   0.00000  -0.00181  -0.00181   2.04415
   R35        2.68666   0.02550   0.00000   0.03244   0.03244   2.71911
   R36        3.25586   0.01378   0.00000   0.02186   0.02185   3.27771
   R37        2.53763   0.00716   0.00000   0.00708   0.00708   2.54471
   R38        2.05750  -0.00257   0.00000  -0.00382  -0.00382   2.05368
   R39        2.77149   0.00280   0.00000   0.00405   0.00405   2.77554
   R40        2.05182  -0.00024   0.00000  -0.00036  -0.00036   2.05147
   R41        2.63458   0.00976   0.00000   0.01160   0.01161   2.64619
   R42        2.64347  -0.00076   0.00000  -0.00064  -0.00063   2.64284
   R43        2.64275  -0.01315   0.00000  -0.01565  -0.01566   2.62710
   R44        2.05482  -0.00296   0.00000  -0.00439  -0.00439   2.05042
   R45        2.60226  -0.00017   0.00000  -0.00003  -0.00003   2.60223
   R46        2.65506  -0.00026   0.00000  -0.00067  -0.00068   2.65438
   R47        2.60647   0.00240   0.00000   0.00292   0.00292   2.60939
   R48        2.64304  -0.01161   0.00000  -0.01387  -0.01387   2.62916
   R49        2.66673  -0.00354   0.00000  -0.00454  -0.00454   2.66220
   R50        2.62396   0.00489   0.00000   0.00579   0.00579   2.62975
   R51        2.05216  -0.00227   0.00000  -0.00336  -0.00336   2.04880
   R52        2.62660  -0.00184   0.00000  -0.00186  -0.00186   2.62474
   R53        2.05307  -0.00213   0.00000  -0.00315  -0.00315   2.04993
   R54        2.65041  -0.00618   0.00000  -0.00732  -0.00732   2.64310
   R55        2.05422  -0.00253   0.00000  -0.00374  -0.00374   2.05048
   R56        2.64877  -0.00311   0.00000  -0.00389  -0.00389   2.64489
   R57        2.04683  -0.00131   0.00000  -0.00192  -0.00192   2.04492
   R58        2.65241   0.00008   0.00000  -0.00007  -0.00007   2.65233
   R59        2.75623  -0.00655   0.00000  -0.00927  -0.00927   2.74697
   R60        2.66773  -0.00883   0.00000  -0.01117  -0.01117   2.65656
   R61        2.06084  -0.00344   0.00000  -0.00513  -0.00513   2.05571
   R62        2.07265  -0.00071   0.00000  -0.00107  -0.00107   2.07158
   R63        2.07327  -0.00062   0.00000  -0.00094  -0.00094   2.07234
   R64        2.64620  -0.00166   0.00000  -0.00217  -0.00218   2.64403
   R65        2.64715  -0.00599   0.00000  -0.00708  -0.00708   2.64008
   R66        2.05171  -0.00315   0.00000  -0.00465  -0.00465   2.04706
   R67        2.05472  -0.00319   0.00000  -0.00472  -0.00472   2.04999
    A1        2.20077   0.01638   0.00000   0.03108   0.03108   2.23184
    A2        2.14658  -0.02420   0.00000  -0.04747  -0.04747   2.09911
    A3        1.93577   0.00780   0.00000   0.01633   0.01633   1.95210
    A4        2.11706   0.05378   0.00000   0.10330   0.10325   2.22031
    A5        2.01275  -0.01661   0.00000  -0.03048  -0.03038   1.98237
[...]
 Alpha  occ. eigenvalues --   -0.47145  -0.46915  -0.46704  -0.46452  -0.45989
 Alpha  occ. eigenvalues --   -0.45886  -0.45603  -0.44896  -0.44597  -0.43970
 Alpha  occ. eigenvalues --   -0.43324  -0.43047  -0.42637  -0.42244  -0.42134
 Alpha  occ. eigenvalues --   -0.41795  -0.40989  -0.40676  -0.40273  -0.40159
 Alpha  occ. eigenvalues --   -0.40068  -0.39835  -0.39674  -0.39236  -0.38438
 Alpha  occ. eigenvalues --   -0.38153  -0.38015  -0.37952  -0.37613  -0.37205
 Alpha  occ. eigenvalues --   -0.37090  -0.36668  -0.35708  -0.35149  -0.32557
 Alpha  occ. eigenvalues --   -0.31967  -0.31176  -0.30664  -0.29840  -0.29612
 Alpha  occ. eigenvalues --   -0.28692  -0.28301  -0.27532  -0.26759  -0.26379
 Alpha  occ. eigenvalues --   -0.25721  -0.23921  -0.23694  -0.22066  -0.19655
 Alpha virt. eigenvalues --   -0.11969  -0.08620  -0.06474  -0.04363  -0.03397
 Alpha virt. eigenvalues --   -0.02955  -0.02321  -0.02107  -0.01725  -0.00452
 Alpha virt. eigenvalues --    0.00870   0.01337   0.02029   0.02160   0.02267
 Alpha virt. eigenvalues --    0.03388   0.04020   0.04663   0.04837   0.05149
 Alpha virt. eigenvalues --    0.05370   0.05874   0.06600   0.06846   0.06979
 Alpha virt. eigenvalues --    0.07524   0.07795   0.08142   0.08783   0.08913
 Alpha virt. eigenvalues --    0.09152   0.09604   0.09721   0.10026   0.10491
 Alpha virt. eigenvalues --    0.10992   0.11375   0.12124   0.12280   0.12772
 Alpha virt. eigenvalues --    0.12947   0.13433   0.13729   0.13985   0.14600
 Alpha virt. eigenvalues --    0.14723   0.15459   0.15672   0.16145   0.17018
 Alpha virt. eigenvalues --    0.17036   0.17687   0.17957   0.18631   0.19114
 Alpha virt. eigenvalues --    0.19249   0.19959   0.20109   0.20201   0.20968
 Alpha virt. eigenvalues --    0.21621   0.22763   0.23216   0.23391   0.23739
 Alpha virt. eigenvalues --    0.24679   0.24968   0.25314   0.25663   0.26147
 Alpha virt. eigenvalues --    0.26550   0.27001   0.27737   0.28122   0.28302
 Alpha virt. eigenvalues --    0.28549   0.29132   0.29473   0.29986   0.30365
 Alpha virt. eigenvalues --    0.31566   0.31608   0.32478   0.32672   0.32782
 Alpha virt. eigenvalues --    0.33597   0.33746   0.33977   0.34387   0.34925
 Alpha virt. eigenvalues --    0.35088   0.35439   0.35626   0.35942   0.36421
 Alpha virt. eigenvalues --    0.36583   0.37106   0.37324   0.37579   0.38031
 Alpha virt. eigenvalues --    0.38345   0.38468   0.38591   0.39072   0.39182
 Alpha virt. eigenvalues --    0.39264   0.39450   0.39676   0.39796   0.40287
 Alpha virt. eigenvalues --    0.40496   0.40796   0.41313   0.41779   0.41808
 Alpha virt. eigenvalues --    0.42021   0.42415   0.42745   0.42812   0.43069
 Alpha virt. eigenvalues --    0.43327   0.43713   0.44004   0.44259   0.44478
 Alpha virt. eigenvalues --    0.44938   0.45628   0.45888   0.46702   0.47293
 Alpha virt. eigenvalues --    0.47657   0.47703   0.48079   0.48221   0.48539
 Alpha virt. eigenvalues --    0.48802   0.49116   0.49730   0.50498   0.50891
 Alpha virt. eigenvalues --    0.50950   0.51149   0.51768   0.52468   0.52969
 Alpha virt. eigenvalues --    0.53573   0.53900   0.54042   0.54517   0.54788
 Alpha virt. eigenvalues --    0.55038   0.55699   0.56141   0.56364   0.56781
 Alpha virt. eigenvalues --    0.57015   0.57540   0.58009   0.58083   0.58705
 Alpha virt. eigenvalues --    0.58743   0.58971   0.59281   0.59434   0.59968
 Alpha virt. eigenvalues --    0.60269   0.60442   0.60617   0.60758   0.61489
 Alpha virt. eigenvalues --    0.62366   0.62445   0.63122   0.63262   0.63392
 Alpha virt. eigenvalues --    0.64006   0.64108   0.64396   0.64688   0.65094
 Alpha virt. eigenvalues --    0.65184   0.65495   0.66200   0.66571   0.67114
 Alpha virt. eigenvalues --    0.68078   0.68521   0.69222   0.69974   0.70629
 Alpha virt. eigenvalues --    0.70931   0.71466   0.72292   0.72363   0.72709
 Alpha virt. eigenvalues --    0.73127   0.73333   0.73440   0.74300   0.74471
 Alpha virt. eigenvalues --    0.74753   0.75274   0.75517   0.75786   0.75943
 Alpha virt. eigenvalues --    0.76283   0.77079   0.77404   0.77518   0.78054
 Alpha virt. eigenvalues --    0.78525   0.79188   0.79308   0.79499   0.80684
 Alpha virt. eigenvalues --    0.80703   0.80911   0.81454   0.81924   0.82249
 Alpha virt. eigenvalues --    0.83040   0.83256   0.83733   0.84163   0.84539
 Alpha virt. eigenvalues --    0.85161   0.85592   0.86436   0.86663   0.87431
 Alpha virt. eigenvalues --    0.88003   0.88265   0.88424   0.88949   0.89205
 Alpha virt. eigenvalues --    0.89739   0.90029   0.91028   0.91344   0.92056
 Alpha virt. eigenvalues --    0.92528   0.92824   0.94003   0.94105   0.94415
 Alpha virt. eigenvalues --    0.94968   0.95301   0.96219   0.96822   0.96893
 Alpha virt. eigenvalues --    0.97658   0.97745   0.98177   0.99040   0.99528
 Alpha virt. eigenvalues --    0.99677   1.00084   1.00345   1.00696   1.00900
 Alpha virt. eigenvalues --    1.01971   1.02255   1.02782   1.02855   1.03403
 Alpha virt. eigenvalues --    1.03863   1.04513   1.04999   1.05221   1.05691
 Alpha virt. eigenvalues --    1.06574   1.07396   1.07863   1.07947   1.08532
 Alpha virt. eigenvalues --    1.08856   1.09370   1.09692   1.10410   1.11450
 Alpha virt. eigenvalues --    1.12425   1.13066   1.13199   1.14523   1.15309
 Alpha virt. eigenvalues --    1.17073   1.18527   1.18949   1.19730   1.20096
 Alpha virt. eigenvalues --    1.21167   1.21466   1.21943   1.22178   1.22806
 Alpha virt. eigenvalues --    1.23363   1.24324   1.24764   1.25008   1.27225
 Alpha virt. eigenvalues --    1.27698   1.28004   1.29114   1.29645   1.30827
 Alpha virt. eigenvalues --    1.31206   1.31400   1.32940   1.33021   1.33790
 Alpha virt. eigenvalues --    1.34415   1.35589   1.35941   1.37013   1.38425
 Alpha virt. eigenvalues --    1.40536   1.40808   1.41560   1.41929   1.42698
 Alpha virt. eigenvalues --    1.42830   1.43016   1.43300   1.43390   1.44263
 Alpha virt. eigenvalues --    1.44697   1.45407   1.45827   1.46395   1.47938
 Alpha virt. eigenvalues --    1.48642   1.48941   1.49215   1.49383   1.49898
 Alpha virt. eigenvalues --    1.50256   1.50319   1.50656   1.51095   1.51154
 Alpha virt. eigenvalues --    1.51641   1.52283   1.52443   1.52578   1.53445
 Alpha virt. eigenvalues --    1.53853   1.53946   1.54504   1.54693   1.55443
 Alpha virt. eigenvalues --    1.56486   1.56809   1.57494   1.57936   1.58391
 Alpha virt. eigenvalues --    1.58553   1.59263   1.59837   1.60685   1.60844
 Alpha virt. eigenvalues --    1.61317   1.61658   1.62068   1.62372   1.63345
 Alpha virt. eigenvalues --    1.63558   1.64177   1.64529   1.64828   1.65462
 Alpha virt. eigenvalues --    1.65774   1.66078   1.66463   1.67450   1.67889
 Alpha virt. eigenvalues --    1.68992   1.69166   1.70137   1.70373   1.70710
 Alpha virt. eigenvalues --    1.71273   1.71626   1.72061   1.72363   1.72645
 Alpha virt. eigenvalues --    1.72712   1.74209   1.74585   1.75450   1.75867
 Alpha virt. eigenvalues --    1.77186   1.77305   1.78080   1.78493   1.78791
 Alpha virt. eigenvalues --    1.79278   1.79905   1.80245   1.80500   1.81360
 Alpha virt. eigenvalues --    1.81459   1.82529   1.83733   1.84105   1.84486
 Alpha virt. eigenvalues --    1.86011   1.86307   1.87063   1.87202   1.87559
 Alpha virt. eigenvalues --    1.88012   1.88607   1.89081   1.89462   1.89837
 Alpha virt. eigenvalues --    1.90143   1.90381   1.90473   1.90951   1.91574
 Alpha virt. eigenvalues --    1.92145   1.92398   1.93254   1.93693   1.93767
 Alpha virt. eigenvalues --    1.94468   1.95421   1.95675   1.96033   1.96438
 Alpha virt. eigenvalues --    1.96944   1.98351   1.98589   1.99362   1.99868
 Alpha virt. eigenvalues --    2.00167   2.00657   2.01223   2.01366   2.02107
 Alpha virt. eigenvalues --    2.02612   2.03375   2.03703   2.05178   2.05786
 Alpha virt. eigenvalues --    2.06175   2.08045   2.08664   2.10300   2.10971
 Alpha virt. eigenvalues --    2.11655   2.12211   2.12668   2.14371   2.14938
 Alpha virt. eigenvalues --    2.15713   2.16588   2.17858   2.19588   2.20706
 Alpha virt. eigenvalues --    2.21354   2.22821   2.24305   2.25012   2.26009
 Alpha virt. eigenvalues --    2.26544   2.26756   2.27745   2.27858   2.27960
 Alpha virt. eigenvalues --    2.29885   2.30248   2.30679   2.32205   2.32296
 Alpha virt. eigenvalues --    2.34577   2.35951   2.36638   2.37468   2.37870
 Alpha virt. eigenvalues --    2.38385   2.39141   2.39626   2.40108   2.40728
 Alpha virt. eigenvalues --    2.41715   2.42971   2.43573   2.43801   2.44354
 Alpha virt. eigenvalues --    2.45030   2.46808   2.47954   2.48792   2.49063
 Alpha virt. eigenvalues --    2.49535   2.50109   2.50841   2.52205   2.53346
 Alpha virt. eigenvalues --    2.53459   2.53914   2.54431   2.54662   2.55540
 Alpha virt. eigenvalues --    2.56069   2.56603   2.56881   2.57486   2.58528
 Alpha virt. eigenvalues --    2.59004   2.59693   2.59965   2.60211   2.61250
 Alpha virt. eigenvalues --    2.61782   2.62115   2.62874   2.63189   2.63882
 Alpha virt. eigenvalues --    2.64182   2.64611   2.64841   2.65329   2.65832
 Alpha virt. eigenvalues --    2.65947   2.67251   2.67783   2.69021   2.69269
 Alpha virt. eigenvalues --    2.70341   2.70852   2.71962   2.72286   2.73478
 Alpha virt. eigenvalues --    2.73844   2.74342   2.75279   2.76785   2.77315
 Alpha virt. eigenvalues --    2.78125   2.79266   2.79876   2.79956   2.80679
 Alpha virt. eigenvalues --    2.80726   2.82356   2.82885   2.83320   2.83347
 Alpha virt. eigenvalues --    2.84821   2.85341   2.85918   2.86394   2.87205
 Alpha virt. eigenvalues --    2.88090   2.88320   2.89137   2.89539   2.89605
 Alpha virt. eigenvalues --    2.90929   2.92166   2.92889   2.93379   2.94502
 Alpha virt. eigenvalues --    2.94702   2.97234   2.98420   3.00067   3.00884
 Alpha virt. eigenvalues --    3.02914   3.03247   3.04769   3.05189   3.05418
 Alpha virt. eigenvalues --    3.07259   3.07946   3.08548   3.09804   3.11401
 Alpha virt. eigenvalues --    3.13109   3.14381   3.15119   3.16047   3.17550
 Alpha virt. eigenvalues --    3.19291   3.19983   3.20248   3.21503   3.23325
 Alpha virt. eigenvalues --    3.25135   3.26411   3.29003   3.30446   3.30793
 Alpha virt. eigenvalues --    3.31189   3.31842   3.33561   3.33575   3.34512
 Alpha virt. eigenvalues --    3.35489   3.36581   3.37415   3.38576   3.39354
 Alpha virt. eigenvalues --    3.41111   3.43035   3.43893   3.46661   3.47917
 Alpha virt. eigenvalues --    3.48269   3.50646   3.52333   3.53020   3.54581
 Alpha virt. eigenvalues --    3.54753   3.56599   3.57094   3.58427   3.58533
 Alpha virt. eigenvalues --    3.59596   3.60253   3.60870   3.61862   3.65298
 Alpha virt. eigenvalues --    3.68725   3.70769   3.71799   3.73147   3.76009
 Alpha virt. eigenvalues --    3.78053   3.80018   3.82295   3.84157   3.86563
 Alpha virt. eigenvalues --    3.87067   3.88867   3.90083   3.90684   3.91661
 Alpha virt. eigenvalues --    3.93257   3.97563   4.01132   4.05502   4.05601
 Alpha virt. eigenvalues --    4.08280   4.10834   4.11999   4.13018   4.15174
 Alpha virt. eigenvalues --    4.16288   4.16555   4.19265   4.31095   4.46839
 Alpha virt. eigenvalues --    4.68403   4.78561   4.80465   4.82092   4.83179
 Alpha virt. eigenvalues --    4.83380   4.88431   4.89594   4.90641   4.91545
 Alpha virt. eigenvalues --    4.93026   4.95008   5.00041   5.01737   5.08857
 Alpha virt. eigenvalues --    5.12908   5.17549   5.29356   5.29388   5.54141
 Alpha virt. eigenvalues --    5.66902   5.69175   5.85663   5.87225   7.70747
 Alpha virt. eigenvalues --    7.77624   7.78123   7.80730  17.16837  17.17823
 Alpha virt. eigenvalues --   17.19293  17.24363  17.29562  17.38388  17.41279
 Alpha virt. eigenvalues --   17.42808  17.45320  17.46623  17.47290  17.51796
 Alpha virt. eigenvalues --   23.43120  23.45106  23.47512  23.52357  23.53899
 Alpha virt. eigenvalues --   23.64820  23.76409  23.77519  23.80860  23.82630
 Alpha virt. eigenvalues --   23.83160  23.85756  23.86325  23.88608  23.88750
 Alpha virt. eigenvalues --   23.89193  23.90909  23.91889  23.99673  24.00347
 Alpha virt. eigenvalues --   24.04815  24.05207  24.08007  24.09179  24.09387
 Alpha virt. eigenvalues --   24.14031  24.14931  24.17522  24.17836  35.46913
 Alpha virt. eigenvalues --   35.49638  35.55099  49.86183  49.89309  49.98682
 Alpha virt. eigenvalues --   50.00071  50.02523 188.82238 188.89486 188.90527
 Alpha virt. eigenvalues --  188.93646
          Condensed to atoms (all electrons):
 Mulliken charges:
               1
     1  O   -0.407553
     2  C    0.538725
     3  N   -0.436164
     4  C   -0.185356
     5  C    0.393073
     6  O   -0.307444
     7  O   -0.309377
     8  C   -0.410171
     9  S    0.344113
    10  C    0.123285
    11  C   -0.428387
    12  S    0.306870
    13  C   -0.109987
    14  N   -0.388749
    15  C   -0.170241
    16  C    0.541550
    17  O   -0.329840
    18  S   -0.121197
    19  C    0.029302
    20  C   -0.275479
    21  C   -0.015550
    22  C   -0.013626
    23  C   -0.251683
    24  C   -0.071991
    25  C   -0.043309
    26  C   -0.078697
    27  C   -0.080590
    28  C    0.134322
    29  O   -0.346413
    30  C    0.137071
    31  C   -0.095811
    32  C   -0.092984
    33  C   -0.096883
    34  C   -0.112553
    35  C    0.228869
    36  N   -0.549920
    37  C   -0.170771
    38  C    0.260189
    39  C   -0.110347
    40  C   -0.053847
    41  S    0.309581
    42  H    0.166372
    43  H    0.174668
    44  H    0.259463
    45  H    0.154617
    46  H    0.153657
    47  H    0.153721
    48  H    0.137701
    49  H    0.120063
    50  H    0.103068
    51  H    0.100651
    52  H    0.096628
    53  H    0.098201
    54  H    0.107532
    55  H    0.098140
    56  H    0.095700
    57  H    0.107473
    58  H    0.134360
    59  H    0.131713
    60  H    0.128143
    61  H    0.107682
    62  H    0.088416
 Sum of Mulliken charges =  -0.00000
 Mulliken charges with hydrogens summed into heavy atoms:
               1
     1  O   -0.407553
     2  C    0.538725
     3  N   -0.436164
     4  C    0.155684
     5  C    0.393073
     6  O   -0.047981
     7  O   -0.309377
     8  C   -0.410171
     9  S    0.344113
    10  C    0.123285
    11  C   -0.428387
    12  S    0.306870
    13  C   -0.109987
    14  N   -0.388749
    15  C    0.291754
    16  C    0.541550
    17  O   -0.329840
    18  S   -0.121197
    19  C    0.167002
    20  C   -0.275479
    21  C    0.104512
    22  C    0.089442
    23  C   -0.251683
    24  C    0.028661
    25  C    0.053319
    26  C   -0.078697
    27  C    0.017611
    28  C    0.134322
    29  O   -0.346413
    30  C    0.137071
    31  C    0.011722
    32  C    0.005156
    33  C   -0.001183
    34  C   -0.005080
    35  C    0.228869
    36  N   -0.549920
    37  C    0.223446
    38  C    0.260189
    39  C   -0.002665
    40  C    0.034569
    41  S    0.309581
 Electronic spatial extent (au):  <R**2>=          65557.8256
 Charge=             -0.0000 electrons
 Dipole moment (field-independent basis, Debye):
    X=            -14.6419    Y=             -0.6578    Z=              1.4067  Tot=             14.7240
 Quadrupole moment (field-independent basis, Debye-Ang):
   XX=           -263.7010   YY=           -284.9348   ZZ=           -272.8148
   XY=             33.2307   XZ=             15.5116   YZ=             -9.4218
 Traceless Quadrupole moment (field-independent basis, Debye-Ang):
   XX=             10.1158   YY=            -11.1179   ZZ=              1.0021
   XY=             33.2307   XZ=             15.5116   YZ=             -9.4218
 Octapole moment (field-independent basis, Debye-Ang**2):
  XXX=          -1480.5783  YYY=            -83.0903  ZZZ=             -3.6821  XYY=           -336.5738
  XXY=             48.5054  XXZ=             35.7877  XZZ=             83.8859  YZZ=            -12.8164
  YYZ=              5.2681  XYZ=            -54.6948
 Hexadecapole moment (field-independent basis, Debye-Ang**3):
 XXXX=         -75277.8219 YYYY=          -8489.2619 ZZZZ=           -542.3577 XXXY=           3663.0552
 XXXZ=           1270.2689 YYYX=           -688.1451 YYYZ=            -92.7304 ZZZX=           -120.0814
 ZZZY=              4.0783 XXYY=         -15885.2253 XXZZ=         -14106.4191 YYZZ=          -1439.9492
 XXYZ=           -795.1967 YYXZ=            113.2009 ZZXY=            -33.3939
 N-N= 4.734246916191D+03 E-N=-1.712032279156D+04  KE= 3.242967798037D+03
 1\1\GINC-CN113\FOpt\RB3LYP\6-311G(d,p)\C29H21N3O5S4\R2532\03-Aug-2021\
 0\\#N B3LYP/6-311G(d,p) OPT\\C61H46O6N4S3\\0,1\O,0.5508258893,1.200840
 9533,0.1732589693\C,0.6003576745,1.9549108561,-0.7931767967\N,-0.19241
 78219,1.7544566424,-1.9307165031\C,-0.7296687367,0.3880882639,-2.15253
 40477\C,-1.9668586712,-0.0468525898,-1.3391858316\O,-2.0074231022,0.32
 79456095,-0.0540226843\O,-2.8012867653,-0.7482704517,-1.8343929392\C,1
 .4774856034,3.1114387427,-0.9352097116\S,1.2278810002,3.8733835168,-2.
 5014067214\C,-0.0591856113,2.7178442378,-2.9178897835\C,-0.7590071652,
 2.8932704982,-4.0773052774\S,-0.2342055593,4.0547056661,-5.3182509643\
 C,-1.7104102538,3.8127714416,-6.2674001483\N,-2.5248971241,2.914785469
 2,-5.6384028333\C,-3.8321403082,2.5416191864,-6.1760129576\C,-2.089082
 0802,2.3724539093,-4.4064393415\O,-2.7812597466,1.6334709484,-3.738921
 9367\S,-1.9861878535,4.5852078315,-7.6962690044\C,2.3431998732,3.46260
 50172,0.0543120932\C,3.282859928,4.5275607286,0.1002908708\C,3.5717671
 185,5.5430864434,-0.8081366568\C,4.5847702226,6.4115792698,-0.38828485
 4\C,5.1148024425,6.0995365419,0.8599599507\C,6.154126684,6.7438122784,
 1.6211551625\C,6.8542075222,7.8282128222,1.2139247847\C,7.9061226406,8
 .5214506248,1.9373156249\C,8.5331943598,9.6273861416,1.3259556065\C,9.
 549587082,10.3125109168,1.9550972727\O,10.1497677452,11.3473033692,1.2
 690784468\C,10.8539312865,12.2718609585,2.0180272387\C,11.1079585712,1
 3.5054186585,1.4468998199\C,11.8505536373,14.4580082943,2.1479801041\C
 ,12.3083487446,14.1635383573,3.4245698545\C,12.0371366963,12.922164470
 1,4.0049511331\C,11.3214086348,11.9493652119,3.3030669954\N,11.0434173
 04,10.6660811927,3.8127991972\C,11.6543395325,10.2229388845,5.05268125
 48\C,9.9958256963,9.9468699003,3.2397565397\C,9.3534348557,8.867205537
 6,3.8635266106\C,8.3409676722,8.1656879083,3.2229587223\S,4.3198281833
 ,4.6910246585,1.5093043016\H,0.0792812567,-0.3058998462,-1.9014154415\
 H,-0.9860275532,0.2751361841,-3.1968777801\H,-1.1294187488,0.660593934
 3,0.2264459041\H,-3.711024933,2.0923970823,-7.1621991253\H,-4.46242685
 99,3.426890688,-6.2671087317\H,-4.2715756652,1.8305614634,-5.480145437
 9\H,2.2859582678,2.8116887766,0.9230050117\H,3.0547952674,5.662116106,
 -1.7501188224\H,4.9225453707,7.2536328865,-0.9765033392\H,6.3721060404
 ,6.3036235447,2.5890570039\H,6.6250871023,8.2479872961,0.2378361711\H,
 8.240140214,9.9530255129,0.3346697631\H,10.7285234321,13.6982392381,0.
 4509877558\H,12.0586110748,15.4193277366,1.6946977824\H,12.8752160269,
 14.89665199,3.985798607\H,12.384305811,12.7206075661,5.0092111664\H,12
 .6778727751,10.5939640122,5.1016830916\H,11.6978885449,9.1341361161,5.
 0657625345\H,11.1116985498,10.5662694403,5.9435174386\H,9.6414223386,8
 .5743631348,4.8638776056\H,7.8811858864,7.3367782189,3.746497282\\Vers
 ion=ES64L-G16RevB.01\State=1-A\HF=-3251.3785906\RMSD=3.267e-09\RMSF=6.
 917e-06\Dipole=4.5922659,2.6764435,2.3032771\Quadrupole=-5.9706837,-5.
 5220978,11.4927815,-10.659701,20.616746,14.7442903\PG=C01 [X(C29H21N3O
 5S4)]\\@


 MY DESCRIPTION OF EXPERIENCE IS NOT WHAT HAPPENS
 TO A MAN.  EXPERIENCE IS WHAT A MAN DOES WITH WHAT
 HAPPENS TO HIM.
                         - CHUCK KNOX, SEATTLE SEAHAWKS, 1985
 Job cpu time:       0 days  8 hours 50 minutes 21.1 seconds.
 Elapsed time:       0 days  8 hours 50 minutes 22.3 seconds.
 File lengths (MBytes):  RWF=    495 Int=      0 D2E=      0 Chk=     60 Scr=      1
 Normal termination of Gaussian 16 at Tue Aug  3 20:06:52 2021.
