 Entering Gaussian System, Link 0=g16
 Input=GO.com
 Output=GO.out
 Initial command:
 /usr/local/apps/gaussian/g16-b01-avx2//g16/l1.exe "/tmp/r2532.924233.maple/Gau-31840.inp" -scrdir="/tmp/r2532.924233.maple/"
 Entering Link 1 = /usr/local/apps/gaussian/g16-b01-avx2//g16/l1.exe PID=     31841.
  
 Copyright (c) 1988-2017, Gaussian, Inc.  All Rights Reserved.
  
 This is part of the Gaussian(R) 16 program.  It is based on
 the Gaussian(R) 09 system (copyright 2009, Gaussian, Inc.),
 the Gaussian(R) 03 system (copyright 2003, Gaussian, Inc.),
 the Gaussian(R) 98 system (copyright 1998, Gaussian, Inc.),
 the Gaussian(R) 94 system (copyright 1995, Gaussian, Inc.),
 the Gaussian 92(TM) system (copyright 1992, Gaussian, Inc.),
 the Gaussian 90(TM) system (copyright 1990, Gaussian, Inc.),
 the Gaussian 88(TM) system (copyright 1988, Gaussian, Inc.),
 the Gaussian 86(TM) system (copyright 1986, Carnegie Mellon
 University), and the Gaussian 82(TM) system (copyright 1983,
 Carnegie Mellon University). Gaussian is a federally registered
 trademark of Gaussian, Inc.
  
 This software contains proprietary and confidential information,
 including trade secrets, belonging to Gaussian, Inc.
  
 This software is provided under written license and may be
 used, copied, transmitted, or stored only in accord with that
 written license.
  
 The following legend is applicable only to US Government
 contracts under FAR:
  
                    RESTRICTED RIGHTS LEGEND
  
 Use, reproduction and disclosure by the US Government is
 subject to restrictions as set forth in subparagraphs (a)
 and (c) of the Commercial Computer Software - Restricted
 Rights clause in FAR 52.227-19.
  
 Gaussian, Inc.
 340 Quinnipiac St., Bldg. 40, Wallingford CT 06492
  
  
 ---------------------------------------------------------------
 Warning -- This program may not be used in any manner that
 competes with the business of Gaussian, Inc. or will provide
 assistance to any competitor of Gaussian, Inc.  The licensee
 of this program is prohibited from giving any competitor of
 Gaussian, Inc. access to this program.  By using this program,
 the user acknowledges that Gaussian, Inc. is engaged in the
 business of creating and licensing software in the field of
 computational chemistry and represents and warrants to the
 licensee that it is not a competitor of Gaussian, Inc. and that
 it will not use this program in any manner prohibited above.
 ---------------------------------------------------------------
  

 Cite this work as:
 Gaussian 16, Revision B.01,
 M. J. Frisch, G. W. Trucks, H. B. Schlegel, G. E. Scuseria, 
 M. A. Robb, J. R. Cheeseman, G. Scalmani, V. Barone, 
 G. A. Petersson, H. Nakatsuji, X. Li, M. Caricato, A. V. Marenich, 
 J. Bloino, B. G. Janesko, R. Gomperts, B. Mennucci, H. P. Hratchian, 
 J. V. Ortiz, A. F. Izmaylov, J. L. Sonnenberg, D. Williams-Young, 
 F. Ding, F. Lipparini, F. Egidi, J. Goings, B. Peng, A. Petrone, 
 T. Henderson, D. Ranasinghe, V. G. Zakrzewski, J. Gao, N. Rega, 
 G. Zheng, W. Liang, M. Hada, M. Ehara, K. Toyota, R. Fukuda, 
 J. Hasegawa, M. Ishida, T. Nakajima, Y. Honda, O. Kitao, H. Nakai, 
 T. Vreven, K. Throssell, J. A. Montgomery, Jr., J. E. Peralta, 
 F. Ogliaro, M. J. Bearpark, J. J. Heyd, E. N. Brothers, K. N. Kudin, 
 V. N. Staroverov, T. A. Keith, R. Kobayashi, J. Normand, 
 K. Raghavachari, A. P. Rendell, J. C. Burant, S. S. Iyengar, 
 J. Tomasi, M. Cossi, J. M. Millam, M. Klene, C. Adamo, R. Cammi, 
 J. W. Ochterski, R. L. Martin, K. Morokuma, O. Farkas, 
 J. B. Foresman, and D. J. Fox, Gaussian, Inc., Wallingford CT, 2016.
 
 ******************************************
 Gaussian 16:  ES64L-G16RevB.01 20-Dec-2017
                 3-Aug-2021 
 ******************************************
 %mem=8gb
 ------------------------
 #N B3LYP/6-311G(d,p) OPT
 ------------------------
 1/18=20,19=15,26=3,38=1/1,3;
 2/9=110,12=2,17=6,18=5,40=1/2;
 3/5=4,6=6,7=101,11=2,25=1,30=1,71=1,74=-5/1,2,3;
 4//1;
 5/5=2,38=5/2;
 6/7=2,8=2,9=2,10=2,28=1/1;
 7//1,2,3,16;
 1/18=20,19=15,26=3/3(2);
 2/9=110/2;
 99//99;
 2/9=110/2;
 3/5=4,6=6,7=101,11=2,25=1,30=1,71=1,74=-5/1,2,3;
 4/5=5,16=3,69=1/1;
 5/5=2,38=5/2;
 7//1,2,3,16;
 1/18=20,19=15,26=3/3(-5);
 2/9=110/2;
 6/7=2,8=2,9=2,10=2,19=2,28=1/1;
 99/9=1/99;
 ------------
 C61H46O6N4S3
 ------------
 Symbolic Z-matrix:
 Charge =  0 Multiplicity = 1
 C                     0.00673  -1.65428  -2.41988 
 C                    -0.06431  -0.71486  -1.25553 
 C                     0.83933  -0.54859  -0.19914 
 C                     2.04339  -1.26039   0.16806 
 C                     2.04278  -2.29846   1.04396 
 C                     0.67661  -2.76936   1.51537 
 N                    -0.45674  -3.16002   1.90645 
 C                     3.27269  -2.97961   1.46053 
 O                     3.11193  -4.01822   2.30632 
 O                     4.38448  -2.63434   1.07182 
 S                     0.36017   0.82927   0.75728 
 C                    -1.00018   1.1787   -0.2178 
 C                    -1.77701   2.41609  -0.09112 
 C                    -2.21637   2.98731   1.11703 
 C                    -2.98037   4.18419   1.17674 
 C                    -3.37786   4.94705   0.04673 
 C                    -4.19083   6.17685   0.1421 
 C                    -4.03714   7.0837    1.21498 
 C                    -4.82895   8.23939   1.34043 
 C                    -5.78737   8.5149    0.38279 
 N                    -6.71382   9.59197   0.30589 
 C                    -6.98177   10.6191   1.2169 
 C                    -7.38446   11.89733   0.80595 
 C                    -7.68438   12.91062   1.72679 
 C                    -7.5663    12.68334   3.09852 
 C                    -7.87346   13.75991   4.0937 
 C                    -7.17157   11.41827   3.53075 
 C                    -6.90209   10.40445   2.60313 
 C                    -7.14098   9.60255  -1.12276 
 C                    -6.93514   8.16166  -1.64328 
 C                    -8.28212   7.48471  -1.44725 
 C                    -9.27374   8.56631  -1.82247 
 C                    -8.62879   9.87979  -1.37949 
 C                    -5.8992    7.65597  -0.70859 
 C                    -5.15479   6.49322  -0.82863 
 C                    -2.94569   4.41112  -1.20699 
 N                    -3.16473   4.93471  -2.42948 
 S                    -2.50542   3.91574  -3.5435 
 N                    -1.86506   2.76922  -2.54838 
 C                    -2.14904   3.12226  -1.27854 
 C                    -1.17795   0.18308  -1.15066 
 H                     1.02899  -1.75696  -2.78819 
 H                    -0.59257  -1.25362  -3.25141 
 H                    -0.40638  -2.63274  -2.16334 
 H                     2.97661  -0.88955  -0.25035 
 H                     2.21386  -4.25596   2.60318 
 H                    -1.98688   2.487     2.0586 
 H                    -3.29466   4.5191    2.1671 
 H                    -3.27923   6.90629   1.97688 
 H                    -4.64982   8.9104    2.17276 
 H                    -7.47476   12.13515  -0.24956 
 H                    -8.01421   13.87827   1.35521 
 H                    -8.08893   14.71095   3.59882 
 H                    -7.01691   13.9157   4.75759 
 H                    -8.74695   13.48092   4.69157 
 H                    -7.08187   11.19992   4.59265 
 H                    -6.66271   9.41747   2.98871 
 H                    -6.50361   10.31289  -1.67048 
 H                    -6.61441   8.16472  -2.68927 
 H                    -8.4434    7.18202  -0.40458 
 H                    -8.38879   6.58626  -2.0657 
 H                    -10.24608   8.41168  -1.3472 
 H                    -9.43022   8.57343  -2.90762 
 H                    -9.15784   10.28808  -0.51396 
 H                    -8.73046   10.61083  -2.19176 
 H                    -5.34044   5.8486   -1.6819 
 H                    -2.00804   0.18765  -1.85096 
 

 GradGradGradGradGradGradGradGradGradGradGradGradGradGradGradGradGradGrad
 Berny optimization.
 Initialization pass.
                           ----------------------------
                           !    Initial Parameters    !
                           ! (Angstroms and Degrees)  !
 --------------------------                            --------------------------
 ! Name  Definition              Value          Derivative Info.                !
 --------------------------------------------------------------------------------
 ! R1    R(1,2)                  1.4978         estimate D2E/DX2                !
 ! R2    R(1,42)                 1.0914         estimate D2E/DX2                !
 ! R3    R(1,43)                 1.1005         estimate D2E/DX2                !
 ! R4    R(1,44)                 1.0926         estimate D2E/DX2                !
 ! R5    R(2,3)                  1.4001         estimate D2E/DX2                !
 ! R6    R(2,41)                 1.4344         estimate D2E/DX2                !
 ! R7    R(3,4)                  1.4461         estimate D2E/DX2                !
 ! R8    R(3,11)                 1.7444         estimate D2E/DX2                !
 ! R9    R(4,5)                  1.3582         estimate D2E/DX2                !
 ! R10   R(4,45)                 1.0879         estimate D2E/DX2                !
 ! R11   R(5,6)                  1.52           estimate D2E/DX2                !
 ! R12   R(5,8)                  1.4663         estimate D2E/DX2                !
 ! R13   R(6,7)                  1.261          estimate D2E/DX2                !
 ! R14   R(8,9)                  1.349          estimate D2E/DX2                !
 ! R15   R(8,10)                 1.2273         estimate D2E/DX2                !
 ! R16   R(9,46)                 0.9753         estimate D2E/DX2                !
 ! R17   R(11,12)                1.7098         estimate D2E/DX2                !
 ! R18   R(12,13)                1.4665         estimate D2E/DX2                !
 ! R19   R(12,41)                1.3759         estimate D2E/DX2                !
 ! R20   R(13,14)                1.4068         estimate D2E/DX2                !
 ! R21   R(13,40)                1.4308         estimate D2E/DX2                !
 ! R22   R(14,15)                1.4212         estimate D2E/DX2                !
 ! R23   R(14,47)                1.0907         estimate D2E/DX2                !
 ! R24   R(15,16)                1.4202         estimate D2E/DX2                !
 ! R25   R(15,48)                1.0917         estimate D2E/DX2                !
 ! R26   R(16,17)                1.4773         estimate D2E/DX2                !
 ! R27   R(16,36)                1.4303         estimate D2E/DX2                !
 ! R28   R(17,18)                1.4132         estimate D2E/DX2                !
 ! R29   R(17,35)                1.4041         estimate D2E/DX2                !
 ! R30   R(18,19)                1.4065         estimate D2E/DX2                !
 ! R31   R(18,49)                1.0892         estimate D2E/DX2                !
 ! R32   R(19,20)                1.3826         estimate D2E/DX2                !
 ! R33   R(19,50)                1.084          estimate D2E/DX2                !
 ! R34   R(20,21)                1.4228         estimate D2E/DX2                !
 ! R35   R(20,34)                1.3933         estimate D2E/DX2                !
 ! R36   R(21,22)                1.3988         estimate D2E/DX2                !
 ! R37   R(21,29)                1.4912         estimate D2E/DX2                !
 ! R38   R(22,23)                1.4018         estimate D2E/DX2                !
 ! R39   R(22,28)                1.405          estimate D2E/DX2                !
 ! R40   R(23,24)                1.4017         estimate D2E/DX2                !
 ! R41   R(23,51)                1.0857         estimate D2E/DX2                !
 ! R42   R(24,25)                1.3954         estimate D2E/DX2                !
 ! R43   R(24,52)                1.0878         estimate D2E/DX2                !
 ! R44   R(25,26)                1.4979         estimate D2E/DX2                !
 ! R45   R(25,27)                1.3939         estimate D2E/DX2                !
 ! R46   R(26,53)                1.0935         estimate D2E/DX2                !
 ! R47   R(26,54)                1.0949         estimate D2E/DX2                !
 ! R48   R(26,55)                1.0947         estimate D2E/DX2                !
 ! R49   R(27,28)                1.4003         estimate D2E/DX2                !
 ! R50   R(27,56)                1.0878         estimate D2E/DX2                !
 ! R51   R(28,57)                1.0863         estimate D2E/DX2                !
 ! R52   R(29,30)                1.5458         estimate D2E/DX2                !
 ! R53   R(29,33)                1.535          estimate D2E/DX2                !
 ! R54   R(29,58)                1.1004         estimate D2E/DX2                !
 ! R55   R(30,31)                1.5202         estimate D2E/DX2                !
 ! R56   R(30,34)                1.4841         estimate D2E/DX2                !
 ! R57   R(30,59)                1.0941         estimate D2E/DX2                !
 ! R58   R(31,32)                1.5146         estimate D2E/DX2                !
 ! R59   R(31,60)                1.0976         estimate D2E/DX2                !
 ! R60   R(31,61)                1.0959         estimate D2E/DX2                !
 ! R61   R(32,33)                1.5289         estimate D2E/DX2                !
 ! R62   R(32,62)                1.0933         estimate D2E/DX2                !
 ! R63   R(32,63)                1.0964         estimate D2E/DX2                !
 ! R64   R(33,64)                1.0935         estimate D2E/DX2                !
 ! R65   R(33,65)                1.0975         estimate D2E/DX2                !
 ! R66   R(34,35)                1.3858         estimate D2E/DX2                !
 ! R67   R(35,66)                1.0854         estimate D2E/DX2                !
 ! R68   R(36,37)                1.3478         estimate D2E/DX2                !
 ! R69   R(36,40)                1.5169         estimate D2E/DX2                !
 ! R70   R(37,38)                1.6474         estimate D2E/DX2                !
 ! R71   R(38,39)                1.6477         estimate D2E/DX2                !
 ! R72   R(39,40)                1.3482         estimate D2E/DX2                !
 ! R73   R(41,67)                1.086          estimate D2E/DX2                !
 ! A1    A(2,1,42)             111.4551         estimate D2E/DX2                !
 ! A2    A(2,1,43)             109.4637         estimate D2E/DX2                !
 ! A3    A(2,1,44)             111.1751         estimate D2E/DX2                !
 ! A4    A(42,1,43)            106.8177         estimate D2E/DX2                !
 ! A5    A(42,1,44)            110.4328         estimate D2E/DX2                !
 ! A6    A(43,1,44)            107.3096         estimate D2E/DX2                !
 ! A7    A(1,2,3)              129.083          estimate D2E/DX2                !
 ! A8    A(1,2,41)             119.0979         estimate D2E/DX2                !
 ! A9    A(3,2,41)             111.8138         estimate D2E/DX2                !
 ! A10   A(2,3,4)              132.1081         estimate D2E/DX2                !
 ! A11   A(2,3,11)             109.2819         estimate D2E/DX2                !
 ! A12   A(4,3,11)             118.5733         estimate D2E/DX2                !
 ! A13   A(3,4,5)              122.6541         estimate D2E/DX2                !
 ! A14   A(3,4,45)             116.6665         estimate D2E/DX2                !
 ! A15   A(5,4,45)             120.5935         estimate D2E/DX2                !
 ! A16   A(4,5,6)              115.9243         estimate D2E/DX2                !
 ! A17   A(4,5,8)              122.5375         estimate D2E/DX2                !
 ! A18   A(6,5,8)              121.4569         estimate D2E/DX2                !
 ! A19   A(5,8,9)              115.8354         estimate D2E/DX2                !
 ! A20   A(5,8,10)             122.6249         estimate D2E/DX2                !
 ! A21   A(9,8,10)             121.5396         estimate D2E/DX2                !
 ! A22   A(8,9,46)             119.2249         estimate D2E/DX2                !
 ! A23   A(3,11,12)             93.8585         estimate D2E/DX2                !
 ! A24   A(11,12,13)           122.9991         estimate D2E/DX2                !
 ! A25   A(11,12,41)           109.9724         estimate D2E/DX2                !
 ! A26   A(13,12,41)           126.9193         estimate D2E/DX2                !
 ! A27   A(12,13,14)           125.6085         estimate D2E/DX2                !
 ! A28   A(12,13,40)           118.8489         estimate D2E/DX2                !
 ! A29   A(14,13,40)           115.5395         estimate D2E/DX2                !
 ! A30   A(13,14,15)           123.0894         estimate D2E/DX2                !
 ! A31   A(13,14,47)           119.3039         estimate D2E/DX2                !
 ! A32   A(15,14,47)           117.5916         estimate D2E/DX2                !
 ! A33   A(14,15,16)           124.7093         estimate D2E/DX2                !
 ! A34   A(14,15,48)           116.8237         estimate D2E/DX2                !
 ! A35   A(16,15,48)           118.4551         estimate D2E/DX2                !
 ! A36   A(15,16,17)           123.355          estimate D2E/DX2                !
 ! A37   A(15,16,36)           114.3058         estimate D2E/DX2                !
 ! A38   A(17,16,36)           122.329          estimate D2E/DX2                !
 ! A39   A(16,17,18)           121.5581         estimate D2E/DX2                !
 ! A40   A(16,17,35)           121.3809         estimate D2E/DX2                !
 ! A41   A(18,17,35)           117.0607         estimate D2E/DX2                !
 ! A42   A(17,18,19)           122.2598         estimate D2E/DX2                !
 ! A43   A(17,18,49)           120.1462         estimate D2E/DX2                !
 ! A44   A(19,18,49)           117.5914         estimate D2E/DX2                !
 ! A45   A(18,19,20)           119.4852         estimate D2E/DX2                !
 ! A46   A(18,19,50)           118.9511         estimate D2E/DX2                !
 ! A47   A(20,19,50)           121.5351         estimate D2E/DX2                !
 ! A48   A(19,20,21)           129.7675         estimate D2E/DX2                !
 ! A49   A(19,20,34)           118.3811         estimate D2E/DX2                !
 ! A50   A(21,20,34)           111.8434         estimate D2E/DX2                !
 ! A51   A(20,21,22)           130.195          estimate D2E/DX2                !
 ! A52   A(20,21,29)           104.104          estimate D2E/DX2                !
 ! A53   A(22,21,29)           124.3241         estimate D2E/DX2                !
 ! A54   A(21,22,23)           122.2538         estimate D2E/DX2                !
 ! A55   A(21,22,28)           121.2998         estimate D2E/DX2                !
 ! A56   A(23,22,28)           116.414          estimate D2E/DX2                !
 ! A57   A(22,23,24)           121.8762         estimate D2E/DX2                !
 ! A58   A(22,23,51)           120.5733         estimate D2E/DX2                !
 ! A59   A(24,23,51)           117.5505         estimate D2E/DX2                !
 ! A60   A(23,24,25)           120.6606         estimate D2E/DX2                !
 ! A61   A(23,24,52)           118.9182         estimate D2E/DX2                !
 ! A62   A(25,24,52)           120.4209         estimate D2E/DX2                !
 ! A63   A(24,25,26)           121.2438         estimate D2E/DX2                !
 ! A64   A(24,25,27)           118.4631         estimate D2E/DX2                !
 ! A65   A(26,25,27)           120.287          estimate D2E/DX2                !
 ! A66   A(25,26,53)           111.3954         estimate D2E/DX2                !
 ! A67   A(25,26,54)           110.1638         estimate D2E/DX2                !
 ! A68   A(25,26,55)           110.0792         estimate D2E/DX2                !
 ! A69   A(53,26,54)           107.7472         estimate D2E/DX2                !
 ! A70   A(53,26,55)           108.1555         estimate D2E/DX2                !
 ! A71   A(54,26,55)           109.2299         estimate D2E/DX2                !
 ! A72   A(25,27,28)           120.4075         estimate D2E/DX2                !
 ! A73   A(25,27,56)           120.5446         estimate D2E/DX2                !
 ! A74   A(28,27,56)           119.0423         estimate D2E/DX2                !
 ! A75   A(22,28,27)           122.1443         estimate D2E/DX2                !
 ! A76   A(22,28,57)           120.0989         estimate D2E/DX2                !
 ! A77   A(27,28,57)           117.7141         estimate D2E/DX2                !
 ! A78   A(21,29,30)           106.1322         estimate D2E/DX2                !
 ! A79   A(21,29,33)           116.0502         estimate D2E/DX2                !
 ! A80   A(21,29,58)           108.3935         estimate D2E/DX2                !
 ! A81   A(30,29,33)           103.9513         estimate D2E/DX2                !
 ! A82   A(30,29,58)           110.9156         estimate D2E/DX2                !
 ! A83   A(33,29,58)           111.1967         estimate D2E/DX2                !
 ! A84   A(29,30,31)           104.6949         estimate D2E/DX2                !
 ! A85   A(29,30,34)           101.4487         estimate D2E/DX2                !
 ! A86   A(29,30,59)           111.0            estimate D2E/DX2                !
 ! A87   A(31,30,34)           112.6774         estimate D2E/DX2                !
 ! A88   A(31,30,59)           112.5989         estimate D2E/DX2                !
 ! A89   A(34,30,59)           113.4816         estimate D2E/DX2                !
 ! A90   A(30,31,32)           103.3067         estimate D2E/DX2                !
 ! A91   A(30,31,60)           112.0541         estimate D2E/DX2                !
 ! A92   A(30,31,61)           112.2428         estimate D2E/DX2                !
 ! A93   A(32,31,60)           109.6373         estimate D2E/DX2                !
 ! A94   A(32,31,61)           112.4523         estimate D2E/DX2                !
 ! A95   A(60,31,61)           107.1984         estimate D2E/DX2                !
 ! A96   A(31,32,33)           105.3995         estimate D2E/DX2                !
 ! A97   A(31,32,62)           111.9374         estimate D2E/DX2                !
 ! A98   A(31,32,63)           110.0766         estimate D2E/DX2                !
 ! A99   A(33,32,62)           111.7614         estimate D2E/DX2                !
 ! A100  A(33,32,63)           109.9622         estimate D2E/DX2                !
 ! A101  A(62,32,63)           107.7129         estimate D2E/DX2                !
 ! A102  A(29,33,32)           107.5877         estimate D2E/DX2                !
 ! A103  A(29,33,64)           113.8275         estimate D2E/DX2                !
 ! A104  A(29,33,65)           109.5036         estimate D2E/DX2                !
 ! A105  A(32,33,64)           110.2442         estimate D2E/DX2                !
 ! A106  A(32,33,65)           108.5862         estimate D2E/DX2                !
 ! A107  A(64,33,65)           106.9948         estimate D2E/DX2                !
 ! A108  A(20,34,30)           109.8337         estimate D2E/DX2                !
 ! A109  A(20,34,35)           122.817          estimate D2E/DX2                !
 ! A110  A(30,34,35)           127.3214         estimate D2E/DX2                !
 ! A111  A(17,35,34)           119.8626         estimate D2E/DX2                !
 ! A112  A(17,35,66)           121.8093         estimate D2E/DX2                !
 ! A113  A(34,35,66)           118.328          estimate D2E/DX2                !
 ! A114  A(16,36,37)           126.8962         estimate D2E/DX2                !
 ! A115  A(16,36,40)           121.225          estimate D2E/DX2                !
 ! A116  A(37,36,40)           111.8788         estimate D2E/DX2                !
 ! A117  A(36,37,38)           107.94           estimate D2E/DX2                !
 ! A118  A(37,38,39)           100.2257         estimate D2E/DX2                !
 ! A119  A(38,39,40)           107.744          estimate D2E/DX2                !
 ! A120  A(13,40,36)           121.117          estimate D2E/DX2                !
 ! A121  A(13,40,39)           126.702          estimate D2E/DX2                !
 ! A122  A(36,40,39)           112.181          estimate D2E/DX2                !
 ! A123  A(2,41,12)            113.7187         estimate D2E/DX2                !
 ! A124  A(2,41,67)            123.2916         estimate D2E/DX2                !
 ! A125  A(12,41,67)           122.2013         estimate D2E/DX2                !
 ! A126  L(5,6,7,1,-1)         180.0004         estimate D2E/DX2                !
 ! A127  L(5,6,7,1,-2)         179.9997         estimate D2E/DX2                !
 ! D1    D(42,1,2,3)           -37.9952         estimate D2E/DX2                !
 ! D2    D(42,1,2,41)          141.097          estimate D2E/DX2                !
 ! D3    D(43,1,2,3)          -155.9388         estimate D2E/DX2                !
 ! D4    D(43,1,2,41)           23.1534         estimate D2E/DX2                !
 ! D5    D(44,1,2,3)            85.6812         estimate D2E/DX2                !
 ! D6    D(44,1,2,41)          -95.2266         estimate D2E/DX2                !
 ! D7    D(1,2,3,4)             -5.1447         estimate D2E/DX2                !
 ! D8    D(1,2,3,11)           172.5571         estimate D2E/DX2                !
 ! D9    D(41,2,3,4)           175.7097         estimate D2E/DX2                !
 ! D10   D(41,2,3,11)           -6.5885         estimate D2E/DX2                !
 ! D11   D(1,2,41,12)         -166.9117         estimate D2E/DX2                !
 ! D12   D(1,2,41,67)            3.1027         estimate D2E/DX2                !
 ! D13   D(3,2,41,12)           12.3293         estimate D2E/DX2                !
 ! D14   D(3,2,41,67)         -177.6563         estimate D2E/DX2                !
 ! D15   D(2,3,4,5)            -93.0959         estimate D2E/DX2                !
 ! D16   D(2,3,4,45)            90.261          estimate D2E/DX2                !
 ! D17   D(11,3,4,5)            89.3744         estimate D2E/DX2                !
 ! D18   D(11,3,4,45)          -87.2687         estimate D2E/DX2                !
 ! D19   D(2,3,11,12)           -0.1002         estimate D2E/DX2                !
 ! D20   D(4,3,11,12)          177.9585         estimate D2E/DX2                !
 ! D21   D(3,4,5,6)              6.0513         estimate D2E/DX2                !
 ! D22   D(3,4,5,8)           -177.1871         estimate D2E/DX2                !
 ! D23   D(45,4,5,6)          -177.4338         estimate D2E/DX2                !
 ! D24   D(45,4,5,8)            -0.6722         estimate D2E/DX2                !
 ! D25   D(4,5,8,9)           -178.1636         estimate D2E/DX2                !
 ! D26   D(4,5,8,10)             1.9198         estimate D2E/DX2                !
 ! D27   D(6,5,8,9)             -1.5781         estimate D2E/DX2                !
 ! D28   D(6,5,8,10)           178.5054         estimate D2E/DX2                !
 ! D29   D(5,8,9,46)            -0.743          estimate D2E/DX2                !
 ! D30   D(10,8,9,46)          179.1745         estimate D2E/DX2                !
 ! D31   D(3,11,12,13)        -169.4756         estimate D2E/DX2                !
 ! D32   D(3,11,12,41)           6.9623         estimate D2E/DX2                !
 ! D33   D(11,12,13,14)        -45.7955         estimate D2E/DX2                !
 ! D34   D(11,12,13,40)        134.8707         estimate D2E/DX2                !
 ! D35   D(41,12,13,14)        138.3931         estimate D2E/DX2                !
 ! D36   D(41,12,13,40)        -40.9407         estimate D2E/DX2                !
 ! D37   D(11,12,41,2)         -12.1039         estimate D2E/DX2                !
 ! D38   D(11,12,41,67)        177.759          estimate D2E/DX2                !
 ! D39   D(13,12,41,2)         164.1591         estimate D2E/DX2                !
 ! D40   D(13,12,41,67)         -5.978          estimate D2E/DX2                !
 ! D41   D(12,13,14,15)       -179.3056         estimate D2E/DX2                !
 ! D42   D(12,13,14,47)         -0.7599         estimate D2E/DX2                !
 ! D43   D(40,13,14,15)          0.0478         estimate D2E/DX2                !
 ! D44   D(40,13,14,47)        178.5934         estimate D2E/DX2                !
 ! D45   D(12,13,40,36)       -179.6604         estimate D2E/DX2                !
 ! D46   D(12,13,40,39)          0.3366         estimate D2E/DX2                !
 ! D47   D(14,13,40,36)          0.9398         estimate D2E/DX2                !
 ! D48   D(14,13,40,39)       -179.0632         estimate D2E/DX2                !
 ! D49   D(13,14,15,16)         -0.6397         estimate D2E/DX2                !
 ! D50   D(13,14,15,48)        178.075          estimate D2E/DX2                !
 ! D51   D(47,14,15,16)       -179.2087         estimate D2E/DX2                !
 ! D52   D(47,14,15,48)         -0.494          estimate D2E/DX2                !
 ! D53   D(14,15,16,17)        179.0081         estimate D2E/DX2                !
 ! D54   D(14,15,16,36)          0.1446         estimate D2E/DX2                !
 ! D55   D(48,15,16,17)          0.3128         estimate D2E/DX2                !
 ! D56   D(48,15,16,36)       -178.5507         estimate D2E/DX2                !
 ! D57   D(15,16,17,18)         35.7581         estimate D2E/DX2                !
 ! D58   D(15,16,17,35)       -144.0058         estimate D2E/DX2                !
 ! D59   D(36,16,17,18)       -145.4677         estimate D2E/DX2                !
 ! D60   D(36,16,17,35)         34.7684         estimate D2E/DX2                !
 ! D61   D(15,16,36,37)       -179.085          estimate D2E/DX2                !
 ! D62   D(15,16,36,40)          0.8513         estimate D2E/DX2                !
 ! D63   D(17,16,36,37)          2.0385         estimate D2E/DX2                !
 ! D64   D(17,16,36,40)       -178.0252         estimate D2E/DX2                !
 ! D65   D(16,17,18,19)       -178.1719         estimate D2E/DX2                !
 ! D66   D(16,17,18,49)          2.4425         estimate D2E/DX2                !
 ! D67   D(35,17,18,19)          1.6018         estimate D2E/DX2                !
 ! D68   D(35,17,18,49)       -177.7838         estimate D2E/DX2                !
 ! D69   D(16,17,35,34)       -179.9479         estimate D2E/DX2                !
 ! D70   D(16,17,35,66)          0.1101         estimate D2E/DX2                !
 ! D71   D(18,17,35,34)          0.278          estimate D2E/DX2                !
 ! D72   D(18,17,35,66)       -179.664          estimate D2E/DX2                !
 ! D73   D(17,18,19,20)         -0.5032         estimate D2E/DX2                !
 ! D74   D(17,18,19,50)       -178.591          estimate D2E/DX2                !
 ! D75   D(49,18,19,20)        178.8973         estimate D2E/DX2                !
 ! D76   D(49,18,19,50)          0.8095         estimate D2E/DX2                !
 ! D77   D(18,19,20,21)        178.6769         estimate D2E/DX2                !
 ! D78   D(18,19,20,34)         -2.446          estimate D2E/DX2                !
 ! D79   D(50,19,20,21)         -3.2863         estimate D2E/DX2                !
 ! D80   D(50,19,20,34)        175.5908         estimate D2E/DX2                !
 ! D81   D(19,20,21,22)         -5.0786         estimate D2E/DX2                !
 ! D82   D(19,20,21,29)        161.6844         estimate D2E/DX2                !
 ! D83   D(34,20,21,22)        175.9858         estimate D2E/DX2                !
 ! D84   D(34,20,21,29)        -17.2512         estimate D2E/DX2                !
 ! D85   D(19,20,34,30)       -177.3488         estimate D2E/DX2                !
 ! D86   D(19,20,34,35)          4.447          estimate D2E/DX2                !
 ! D87   D(21,20,34,30)          1.7212         estimate D2E/DX2                !
 ! D88   D(21,20,34,35)       -176.4829         estimate D2E/DX2                !
 ! D89   D(20,21,22,23)        148.1618         estimate D2E/DX2                !
 ! D90   D(20,21,22,28)        -33.9841         estimate D2E/DX2                !
 ! D91   D(29,21,22,23)        -16.2392         estimate D2E/DX2                !
 ! D92   D(29,21,22,28)        161.615          estimate D2E/DX2                !
 ! D93   D(20,21,29,30)         25.3635         estimate D2E/DX2                !
 ! D94   D(20,21,29,33)        140.2453         estimate D2E/DX2                !
 ! D95   D(20,21,29,58)        -93.8337         estimate D2E/DX2                !
 ! D96   D(22,21,29,30)       -166.8637         estimate D2E/DX2                !
 ! D97   D(22,21,29,33)        -51.9818         estimate D2E/DX2                !
 ! D98   D(22,21,29,58)         73.9392         estimate D2E/DX2                !
 ! D99   D(21,22,23,24)        178.3154         estimate D2E/DX2                !
 ! D100  D(21,22,23,51)         -1.6719         estimate D2E/DX2                !
 ! D101  D(28,22,23,24)          0.3627         estimate D2E/DX2                !
 ! D102  D(28,22,23,51)       -179.6246         estimate D2E/DX2                !
 ! D103  D(21,22,28,27)       -179.747          estimate D2E/DX2                !
 ! D104  D(21,22,28,57)         -2.1779         estimate D2E/DX2                !
 ! D105  D(23,22,28,27)         -1.7732         estimate D2E/DX2                !
 ! D106  D(23,22,28,57)        175.7959         estimate D2E/DX2                !
 ! D107  D(22,23,24,25)          1.2021         estimate D2E/DX2                !
 ! D108  D(22,23,24,52)       -178.6178         estimate D2E/DX2                !
 ! D109  D(51,23,24,25)       -178.8102         estimate D2E/DX2                !
 ! D110  D(51,23,24,52)          1.3698         estimate D2E/DX2                !
 ! D111  D(23,24,25,26)        179.5344         estimate D2E/DX2                !
 ! D112  D(23,24,25,27)         -1.3617         estimate D2E/DX2                !
 ! D113  D(52,24,25,26)         -0.6484         estimate D2E/DX2                !
 ! D114  D(52,24,25,27)        178.4555         estimate D2E/DX2                !
 ! D115  D(24,25,26,53)         -5.4842         estimate D2E/DX2                !
 ! D116  D(24,25,26,54)       -124.9976         estimate D2E/DX2                !
 ! D117  D(24,25,26,55)        114.4851         estimate D2E/DX2                !
 ! D118  D(27,25,26,53)        175.4282         estimate D2E/DX2                !
 ! D119  D(27,25,26,54)         55.9147         estimate D2E/DX2                !
 ! D120  D(27,25,26,55)        -64.6025         estimate D2E/DX2                !
 ! D121  D(24,25,27,28)         -0.0192         estimate D2E/DX2                !
 ! D122  D(24,25,27,56)       -179.1561         estimate D2E/DX2                !
 ! D123  D(26,25,27,28)        179.0935         estimate D2E/DX2                !
 ! D124  D(26,25,27,56)         -0.0434         estimate D2E/DX2                !
 ! D125  D(25,27,28,22)          1.6408         estimate D2E/DX2                !
 ! D126  D(25,27,28,57)       -175.9836         estimate D2E/DX2                !
 ! D127  D(56,27,28,22)       -179.2094         estimate D2E/DX2                !
 ! D128  D(56,27,28,57)          3.1662         estimate D2E/DX2                !
 ! D129  D(21,29,30,31)         93.4941         estimate D2E/DX2                !
 ! D130  D(21,29,30,34)        -23.879          estimate D2E/DX2                !
 ! D131  D(21,29,30,59)       -144.7566         estimate D2E/DX2                !
 ! D132  D(33,29,30,31)        -29.388          estimate D2E/DX2                !
 ! D133  D(33,29,30,34)       -146.761          estimate D2E/DX2                !
 ! D134  D(33,29,30,59)         92.3614         estimate D2E/DX2                !
 ! D135  D(58,29,30,31)       -148.9776         estimate D2E/DX2                !
 ! D136  D(58,29,30,34)         93.6494         estimate D2E/DX2                !
 ! D137  D(58,29,30,59)        -27.2282         estimate D2E/DX2                !
 ! D138  D(21,29,33,32)       -107.6484         estimate D2E/DX2                !
 ! D139  D(21,29,33,64)         14.8176         estimate D2E/DX2                !
 ! D140  D(21,29,33,65)        134.5128         estimate D2E/DX2                !
 ! D141  D(30,29,33,32)          8.4625         estimate D2E/DX2                !
 ! D142  D(30,29,33,64)        130.9284         estimate D2E/DX2                !
 ! D143  D(30,29,33,65)       -109.3763         estimate D2E/DX2                !
 ! D144  D(58,29,33,32)        127.8607         estimate D2E/DX2                !
 ! D145  D(58,29,33,64)       -109.6733         estimate D2E/DX2                !
 ! D146  D(58,29,33,65)         10.022          estimate D2E/DX2                !
 ! D147  D(29,30,31,32)         39.3598         estimate D2E/DX2                !
 ! D148  D(29,30,31,60)        -78.5718         estimate D2E/DX2                !
 ! D149  D(29,30,31,61)        160.7409         estimate D2E/DX2                !
 ! D150  D(34,30,31,32)        148.7485         estimate D2E/DX2                !
 ! D151  D(34,30,31,60)         30.8169         estimate D2E/DX2                !
 ! D152  D(34,30,31,61)        -89.8704         estimate D2E/DX2                !
 ! D153  D(59,30,31,32)        -81.3344         estimate D2E/DX2                !
 ! D154  D(59,30,31,60)        160.734          estimate D2E/DX2                !
 ! D155  D(59,30,31,61)         40.0466         estimate D2E/DX2                !
 ! D156  D(29,30,34,20)         13.8811         estimate D2E/DX2                !
 ! D157  D(29,30,34,35)       -168.0167         estimate D2E/DX2                !
 ! D158  D(31,30,34,20)        -97.5344         estimate D2E/DX2                !
 ! D159  D(31,30,34,35)         80.5678         estimate D2E/DX2                !
 ! D160  D(59,30,34,20)        133.0009         estimate D2E/DX2                !
 ! D161  D(59,30,34,35)        -48.897          estimate D2E/DX2                !
 ! D162  D(30,31,32,33)        -33.7493         estimate D2E/DX2                !
 ! D163  D(30,31,32,62)       -155.4511         estimate D2E/DX2                !
 ! D164  D(30,31,32,63)         84.7855         estimate D2E/DX2                !
 ! D165  D(60,31,32,33)         85.8586         estimate D2E/DX2                !
 ! D166  D(60,31,32,62)        -35.8433         estimate D2E/DX2                !
 ! D167  D(60,31,32,63)       -155.6066         estimate D2E/DX2                !
 ! D168  D(61,31,32,33)       -154.9886         estimate D2E/DX2                !
 ! D169  D(61,31,32,62)         83.3095         estimate D2E/DX2                !
 ! D170  D(61,31,32,63)        -36.4539         estimate D2E/DX2                !
 ! D171  D(31,32,33,29)         15.5901         estimate D2E/DX2                !
 ! D172  D(31,32,33,64)       -109.0626         estimate D2E/DX2                !
 ! D173  D(31,32,33,65)        134.0211         estimate D2E/DX2                !
 ! D174  D(62,32,33,29)        137.406          estimate D2E/DX2                !
 ! D175  D(62,32,33,64)         12.7533         estimate D2E/DX2                !
 ! D176  D(62,32,33,65)       -104.163          estimate D2E/DX2                !
 ! D177  D(63,32,33,29)       -103.0212         estimate D2E/DX2                !
 ! D178  D(63,32,33,64)        132.3261         estimate D2E/DX2                !
 ! D179  D(63,32,33,65)         15.4098         estimate D2E/DX2                !
 ! D180  D(20,34,35,17)         -3.3565         estimate D2E/DX2                !
 ! D181  D(20,34,35,66)        176.5876         estimate D2E/DX2                !
 ! D182  D(30,34,35,17)        178.7679         estimate D2E/DX2                !
 ! D183  D(30,34,35,66)         -1.2881         estimate D2E/DX2                !
 ! D184  D(16,36,37,38)       -178.228          estimate D2E/DX2                !
 ! D185  D(40,36,37,38)          1.8307         estimate D2E/DX2                !
 ! D186  D(16,36,40,13)         -1.4587         estimate D2E/DX2                !
 ! D187  D(16,36,40,39)        178.5439         estimate D2E/DX2                !
 ! D188  D(37,36,40,13)        178.4864         estimate D2E/DX2                !
 ! D189  D(37,36,40,39)         -1.511          estimate D2E/DX2                !
 ! D190  D(36,37,38,39)         -1.4847         estimate D2E/DX2                !
 ! D191  D(37,38,39,40)          0.5994         estimate D2E/DX2                !
 ! D192  D(38,39,40,13)       -179.6053         estimate D2E/DX2                !
 ! D193  D(38,39,40,36)          0.3919         estimate D2E/DX2                !
 --------------------------------------------------------------------------------
 Trust Radius=3.00D-01 FncErr=1.00D-07 GrdErr=1.00D-06 EigMax=2.50D+02 EigMin=1.00D-04
 Number of steps in this run=    402 maximum allowed number of steps=    402.
 GradGradGradGradGradGradGradGradGradGradGradGradGradGradGradGradGradGrad

 Stoichiometry    C33H26N4O2S2
 Framework group  C1[X(C33H26N4O2S2)]
 Deg. of freedom   195
 Full point group                 C1      NOp   1
 Largest Abelian subgroup         C1      NOp   1
 Largest concise Abelian subgroup C1      NOp   1
                         Standard orientation:                         
 ---------------------------------------------------------------------
 Center     Atomic      Atomic             Coordinates (Angstroms)
 Number     Number       Type             X           Y           Z
 ---------------------------------------------------------------------
      1          6           0       -7.125130    2.438966    0.255454
      2          6           0       -6.273891    1.212117    0.139267
      3          6           0       -6.620964   -0.062289   -0.325061
      4          6           0       -7.883752   -0.633055   -0.738399
      5          6           0       -8.694572   -1.312740    0.113299
      6          6           0       -8.268251   -1.321036    1.572264
      7          7           0       -7.914592   -1.327924    2.782602
      8          6           0       -9.945462   -1.941998   -0.321994
      9          8           0      -10.665116   -2.549526    0.643885
     10          8           0      -10.323497   -1.924817   -1.489547
     11         16           0       -5.184404   -1.045396   -0.437432
     12          6           0       -4.149724    0.199425    0.113289
     13          6           0       -2.687317    0.106980    0.054406
     14          6           0       -1.920796   -1.007273    0.441502
     15          6           0       -0.501405   -1.033520    0.374988
     16          6           0        0.306089    0.036462   -0.094019
     17          6           0        1.782036   -0.015280   -0.130452
     18          6           0        2.473020   -1.211278   -0.429115
     19          6           0        3.877537   -1.286429   -0.430984
     20          6           0        4.619873   -0.156304   -0.142362
     21          7           0        6.030517    0.009131   -0.058582
     22          6           0        7.057399   -0.936299   -0.150275
     23          6           0        8.315441   -0.624901   -0.684384
     24          6           0        9.349957   -1.568966   -0.740719
     25          6           0        9.149775   -2.872129   -0.283624
     26          6           0       10.242894   -3.894278   -0.347152
     27          6           0        7.907886   -3.203550    0.255734
     28          6           0        6.890309   -2.244702    0.333688
     29          6           0        6.231101    1.482255   -0.173856
     30          6           0        4.918483    2.134206    0.317540
     31          6           0        5.155228    2.413042    1.793089
     32          6           0        6.595728    2.879224    1.833027
     33          6           0        7.308739    2.089064    0.735446
     34          6           0        3.942938    1.038862    0.091550
     35          6           0        2.560341    1.122766    0.135475
     36          6           0       -0.429303    1.190798   -0.509364
     37          7           0        0.076413    2.335658   -1.009517
     38         16           0       -1.178423    3.366819   -1.285425
     39          7           0       -2.444222    2.415894   -0.828998
     40          6           0       -1.942957    1.233029   -0.419926
     41          6           0       -4.893596    1.281882    0.523203
     42          1           0       -7.815225    2.527156   -0.585499
     43          1           0       -6.484036    3.333263    0.236394
     44          1           0       -7.672508    2.451456    1.201010
     45          1           0       -8.138676   -0.542964   -1.792148
     46          1           0      -10.326906   -2.553190    1.558640
     47          1           0       -2.424521   -1.891214    0.834489
     48          1           0       -0.008197   -1.939667    0.731918
     49          1           0        1.919108   -2.115326   -0.678662
     50          1           0        4.352422   -2.225720   -0.690468
     51          1           0        8.520392    0.368406   -1.071875
     52          1           0       10.314449   -1.268928   -1.144377
     53          1           0       11.122826   -3.505533   -0.867161
     54          1           0        9.899324   -4.781047   -0.889644
     55          1           0       10.544970   -4.184817    0.664088
     56          1           0        7.719383   -4.205647    0.634711
     57          1           0        5.963020   -2.530668    0.822014
     58          1           0        6.418958    1.725465   -1.230445
     59          1           0        4.694556    3.041627   -0.251158
     60          1           0        5.042701    1.509762    2.406453
     61          1           0        4.461493    3.162827    2.190110
     62          1           0        7.051558    2.713747    2.812859
     63          1           0        6.650031    3.952729    1.616867
     64          1           0        7.981255    1.349065    1.178008
     65          1           0        7.931298    2.781295    0.154262
     66          1           0        2.109906    2.079846    0.378737
     67          1           0       -4.436204    2.172433    0.944157
 ---------------------------------------------------------------------
 Rotational constants (GHZ):           0.2012565           0.0222493           0.0207507
 Standard basis: 6-311G(d,p) (5D, 7F)
 There are   951 symmetry adapted cartesian basis functions of A   symmetry.
 There are   910 symmetry adapted basis functions of A   symmetry.
   910 basis functions,  1548 primitive gaussians,   951 cartesian basis functions
   150 alpha electrons      150 beta electrons
       nuclear repulsion energy      4419.5705041694 Hartrees.
 NAtoms=   67 NActive=   67 NUniq=   67 SFac= 1.00D+00 NAtFMM=   60 NAOKFM=T Big=T
 Integral buffers will be    131072 words long.
 Raffenetti 2 integral format.
 Two-electron integral symmetry is turned on.
 One-electron integrals computed using PRISM.
 NBasis=   910 RedAO= T EigKep=  1.24D-04  NBF=   910
 NBsUse=   910 1.00D-06 EigRej= -1.00D+00 NBFU=   910
 ExpMin= 7.71D-02 ExpMax= 9.34D+04 ExpMxC= 3.17D+03 IAcc=3 IRadAn=         5 AccDes= 0.00D+00
 Harris functional with IExCor=  402 and IRadAn=       5 diagonalized for initial guess.
 HarFok:  IExCor=  402 AccDes= 0.00D+00 IRadAn=         5 IDoV= 1 UseB2=F ITyADJ=14
 ICtDFT=  3500011 ScaDFX=  1.000000  1.000000  1.000000  1.000000
 FoFCou: FMM=F IPFlag=           0 FMFlag=      100000 FMFlg1=        2001
         NFxFlg=           0 DoJE=T BraDBF=F KetDBF=T FulRan=T
         wScrn=  0.000000 ICntrl=       500 IOpCl=  0 I1Cent=   200000004 NGrid=           0
         NMat0=    1 NMatS0=      1 NMatT0=    0 NMatD0=    1 NMtDS0=    0 NMtDT0=    0
 Petite list used in FoFCou.
 Requested convergence on RMS density matrix=1.00D-08 within 128 cycles.
 Requested convergence on MAX density matrix=1.00D-06.
 Requested convergence on             energy=1.00D-06.
 No special actions if energy rises.
 Integral accuracy reduced to 1.0D-05 until final iterations.
 EnCoef did     7 forward-backward iterations
 EnCoef did     1 forward-backward iterations
 Initial convergence to 1.0D-05 achieved.  Increase integral accuracy.
 SCF Done:  E(RB3LYP) =  -2439.36619691     A.U. after   19 cycles
            NFock= 19  Conv=0.50D-08     -V/T= 2.0035

 **********************************************************************

            Population analysis using the SCF Density.

 **********************************************************************

 Orbital symmetries:
       Occupied  (A) (A) (A) (A) (A) (A) (A) (A) (A) (A) (A) (A)
                 (A) (A) (A) (A) (A) (A) (A) (A) (A) (A) (A) (A)
                 (A) (A) (A) (A) (A) (A) (A) (A) (A) (A) (A) (A)
                 (A) (A) (A) (A) (A) (A) (A) (A) (A) (A) (A) (A)
                 (A) (A) (A) (A) (A) (A) (A) (A) (A) (A) (A) (A)
                 (A) (A) (A) (A) (A) (A) (A) (A) (A) (A) (A) (A)
                 (A) (A) (A) (A) (A) (A) (A) (A) (A) (A) (A) (A)
                 (A) (A) (A) (A) (A) (A) (A) (A) (A) (A) (A) (A)
                 (A) (A) (A) (A) (A) (A) (A) (A) (A) (A) (A) (A)
                 (A) (A) (A) (A) (A) (A) (A) (A) (A) (A) (A) (A)
                 (A) (A) (A) (A) (A) (A) (A) (A) (A) (A) (A) (A)
                 (A) (A) (A) (A) (A) (A) (A) (A) (A) (A) (A) (A)
                 (A) (A) (A) (A) (A) (A)
       Virtual   (A) (A) (A) (A) (A) (A) (A) (A) (A) (A) (A) (A)
                 (A) (A) (A) (A) (A) (A) (A) (A) (A) (A) (A) (A)
                 (A) (A) (A) (A) (A) (A) (A) (A) (A) (A) (A) (A)
                 (A) (A) (A) (A) (A) (A) (A) (A) (A) (A) (A) (A)
                 (A) (A) (A) (A) (A) (A) (A) (A) (A) (A) (A) (A)
                 (A) (A) (A) (A) (A) (A) (A) (A) (A) (A) (A) (A)
                 (A) (A) (A) (A) (A) (A) (A) (A) (A) (A) (A) (A)
                 (A) (A) (A) (A) (A) (A) (A) (A) (A) (A) (A) (A)
                 (A) (A) (A) (A) (A) (A) (A) (A) (A) (A) (A) (A)
                 (A) (A) (A) (A) (A) (A) (A) (A) (A) (A) (A) (A)
                 (A) (A) (A) (A) (A) (A) (A) (A) (A) (A) (A) (A)
                 (A) (A) (A) (A) (A) (A) (A) (A) (A) (A) (A) (A)
                 (A) (A) (A) (A) (A) (A) (A) (A) (A) (A) (A) (A)
                 (A) (A) (A) (A) (A) (A) (A) (A) (A) (A) (A) (A)
                 (A) (A) (A) (A) (A) (A) (A) (A) (A) (A) (A) (A)
                 (A) (A) (A) (A) (A) (A) (A) (A) (A) (A) (A) (A)
                 (A) (A) (A) (A) (A) (A) (A) (A) (A) (A) (A) (A)
                 (A) (A) (A) (A) (A) (A) (A) (A) (A) (A) (A) (A)
                 (A) (A) (A) (A) (A) (A) (A) (A) (A) (A) (A) (A)
                 (A) (A) (A) (A) (A) (A) (A) (A) (A) (A) (A) (A)
                 (A) (A) (A) (A) (A) (A) (A) (A) (A) (A) (A) (A)
                 (A) (A) (A) (A) (A) (A) (A) (A) (A) (A) (A) (A)
                 (A) (A) (A) (A) (A) (A) (A) (A) (A) (A) (A) (A)
                 (A) (A) (A) (A) (A) (A) (A) (A) (A) (A) (A) (A)
                 (A) (A) (A) (A) (A) (A) (A) (A) (A) (A) (A) (A)
                 (A) (A) (A) (A) (A) (A) (A) (A) (A) (A) (A) (A)
                 (A) (A) (A) (A) (A) (A) (A) (A) (A) (A) (A) (A)
                 (A) (A) (A) (A) (A) (A) (A) (A) (A) (A) (A) (A)
                 (A) (A) (A) (A) (A) (A) (A) (A) (A) (A) (A) (A)
                 (A) (A) (A) (A) (A) (A) (A) (A) (A) (A) (A) (A)
                 (A) (A) (A) (A) (A) (A) (A) (A) (A) (A) (A) (A)
                 (A) (A) (A) (A) (A) (A) (A) (A) (A) (A) (A) (A)
                 (A) (A) (A) (A) (A) (A) (A) (A) (A) (A) (A) (A)
                 (A) (A) (A) (A) (A) (A) (A) (A) (A) (A) (A) (A)
                 (A) (A) (A) (A) (A) (A) (A) (A) (A) (A) (A) (A)
                 (A) (A) (A) (A) (A) (A) (A) (A) (A) (A) (A) (A)
                 (A) (A) (A) (A) (A) (A) (A) (A) (A) (A) (A) (A)
                 (A) (A) (A) (A) (A) (A) (A) (A) (A) (A) (A) (A)
                 (A) (A) (A) (A) (A) (A) (A) (A) (A) (A) (A) (A)
                 (A) (A) (A) (A) (A) (A) (A) (A) (A) (A) (A) (A)
                 (A) (A) (A) (A) (A) (A) (A) (A) (A) (A) (A) (A)
                 (A) (A) (A) (A) (A) (A) (A) (A) (A) (A) (A) (A)
                 (A) (A) (A) (A) (A) (A) (A) (A) (A) (A) (A) (A)
                 (A) (A) (A) (A) (A) (A) (A) (A) (A) (A) (A) (A)
                 (A) (A) (A) (A) (A) (A) (A) (A) (A) (A) (A) (A)
                 (A) (A) (A) (A) (A) (A) (A) (A) (A) (A) (A) (A)
                 (A) (A) (A) (A) (A) (A) (A) (A) (A) (A) (A) (A)
                 (A) (A) (A) (A) (A) (A) (A) (A) (A) (A) (A) (A)
                 (A) (A) (A) (A) (A) (A) (A) (A) (A) (A) (A) (A)
                 (A) (A) (A) (A) (A) (A) (A) (A) (A) (A) (A) (A)
                 (A) (A) (A) (A) (A) (A) (A) (A) (A) (A) (A) (A)
                 (A) (A) (A) (A) (A) (A) (A) (A) (A) (A) (A) (A)
                 (A) (A) (A) (A) (A) (A) (A) (A) (A) (A) (A) (A)
                 (A) (A) (A) (A) (A) (A) (A) (A) (A) (A) (A) (A)
                 (A) (A) (A) (A) (A) (A) (A) (A) (A) (A) (A) (A)
                 (A) (A) (A) (A) (A) (A) (A) (A) (A) (A) (A) (A)
                 (A) (A) (A) (A) (A) (A) (A) (A) (A) (A) (A) (A)
                 (A) (A) (A) (A) (A) (A) (A) (A) (A) (A) (A) (A)
                 (A) (A) (A) (A) (A) (A) (A) (A) (A) (A) (A) (A)
                 (A) (A) (A) (A) (A) (A) (A) (A) (A) (A) (A) (A)
                 (A) (A) (A) (A) (A) (A) (A) (A) (A) (A) (A) (A)
                 (A) (A) (A) (A) (A) (A) (A) (A) (A) (A) (A) (A)
                 (A) (A) (A) (A) (A) (A) (A) (A) (A) (A) (A) (A)
                 (A) (A) (A) (A)
 The electronic state is 1-A.
 Alpha  occ. eigenvalues --  -88.94188 -88.88813 -19.18414 -19.12483 -14.36191
 Alpha  occ. eigenvalues --  -14.35351 -14.35328 -14.35065 -10.33553 -10.26369
 Alpha  occ. eigenvalues --  -10.26316 -10.24917 -10.24192 -10.24073 -10.22333
 Alpha  occ. eigenvalues --  -10.22270 -10.21901 -10.21846 -10.21816 -10.21611
 Alpha  occ. eigenvalues --  -10.21305 -10.20424 -10.20367 -10.19921 -10.18973
 Alpha  occ. eigenvalues --  -10.18594 -10.18381 -10.18225 -10.18165 -10.17844
 Alpha  occ. eigenvalues --  -10.17739 -10.17678 -10.17666 -10.17649 -10.17629
 Alpha  occ. eigenvalues --  -10.17593 -10.17555 -10.17209 -10.17102 -10.16916
 Alpha  occ. eigenvalues --  -10.16836  -8.02406  -7.97504  -5.98828  -5.98241
 Alpha  occ. eigenvalues --   -5.98017  -5.93818  -5.93409  -5.93074  -1.11941
 Alpha  occ. eigenvalues --   -1.03528  -1.01889  -0.97654  -0.91408  -0.90064
 Alpha  occ. eigenvalues --   -0.89552  -0.87789  -0.86947  -0.85462  -0.84746
 Alpha  occ. eigenvalues --   -0.84565  -0.80384  -0.78723  -0.77541  -0.76963
 Alpha  occ. eigenvalues --   -0.76629  -0.75931  -0.75055  -0.73591  -0.72207
 Alpha  occ. eigenvalues --   -0.70756  -0.70198  -0.68910  -0.67529  -0.65896
 Alpha  occ. eigenvalues --   -0.64662  -0.63168  -0.62630  -0.62014  -0.61315
 Alpha  occ. eigenvalues --   -0.60638  -0.59993  -0.58243  -0.57870  -0.57286
 Alpha  occ. eigenvalues --   -0.55810  -0.55032  -0.54115  -0.52078  -0.51747
 Alpha  occ. eigenvalues --   -0.51173  -0.50346  -0.49788  -0.49352  -0.48711
 Alpha  occ. eigenvalues --   -0.47558  -0.47336  -0.46863  -0.46300  -0.46156
 Alpha  occ. eigenvalues --   -0.45891  -0.45613  -0.44955  -0.44526  -0.44154
 Alpha  occ. eigenvalues --   -0.43704  -0.43438  -0.42921  -0.42826  -0.42343
 Alpha  occ. eigenvalues --   -0.42048  -0.41047  -0.40970  -0.40053  -0.39848
 Alpha  occ. eigenvalues --   -0.39399  -0.39232  -0.39028  -0.38930  -0.38695
 Alpha  occ. eigenvalues --   -0.38365  -0.37812  -0.37608  -0.37325  -0.36485
 Alpha  occ. eigenvalues --   -0.36425  -0.35812  -0.35546  -0.35265  -0.35030
 Alpha  occ. eigenvalues --   -0.34957  -0.34535  -0.34339  -0.34130  -0.34052
 Alpha  occ. eigenvalues --   -0.33661  -0.32857  -0.32499  -0.31118  -0.30716
 Alpha  occ. eigenvalues --   -0.30304  -0.30090  -0.27276  -0.27164  -0.25786
 Alpha  occ. eigenvalues --   -0.25753  -0.25438  -0.25017  -0.22481  -0.19162
 Alpha virt. eigenvalues --   -0.11075  -0.10264  -0.04727  -0.03150  -0.02424
 Alpha virt. eigenvalues --   -0.01963  -0.01921  -0.01717  -0.01025  -0.00336
 Alpha virt. eigenvalues --    0.00016   0.01272   0.01926   0.02694   0.03069
 Alpha virt. eigenvalues --    0.04297   0.04438   0.04799   0.05146   0.05167
 Alpha virt. eigenvalues --    0.05384   0.06114   0.06290   0.06761   0.07221
 Alpha virt. eigenvalues --    0.07463   0.08285   0.08637   0.08755   0.09557
 Alpha virt. eigenvalues --    0.09858   0.10082   0.10792   0.11383   0.11670
 Alpha virt. eigenvalues --    0.11826   0.11933   0.12551   0.12687   0.13139
 Alpha virt. eigenvalues --    0.13314   0.13516   0.13800   0.14788   0.15214
 Alpha virt. eigenvalues --    0.15299   0.15992   0.16543   0.16997   0.17178
 Alpha virt. eigenvalues --    0.17523   0.17832   0.18257   0.18708   0.19117
 Alpha virt. eigenvalues --    0.19921   0.20203   0.20868   0.21422   0.21750
 Alpha virt. eigenvalues --    0.22204   0.22260   0.22797   0.23104   0.23859
 Alpha virt. eigenvalues --    0.24557   0.24937   0.25612   0.25853   0.26144
 Alpha virt. eigenvalues --    0.26678   0.27268   0.27967   0.28416   0.28739
 Alpha virt. eigenvalues --    0.29499   0.29817   0.30377   0.30586   0.30774
 Alpha virt. eigenvalues --    0.31092   0.31309   0.31586   0.31782   0.32147
 Alpha virt. eigenvalues --    0.32324   0.32823   0.33148   0.33479   0.33729
 Alpha virt. eigenvalues --    0.34504   0.34671   0.35357   0.35568   0.35982
 Alpha virt. eigenvalues --    0.36429   0.36548   0.37213   0.37317   0.37731
 Alpha virt. eigenvalues --    0.37847   0.38229   0.38580   0.39034   0.39148
 Alpha virt. eigenvalues --    0.39330   0.39866   0.40233   0.40621   0.40785
 Alpha virt. eigenvalues --    0.40937   0.41312   0.41756   0.41845   0.42214
 Alpha virt. eigenvalues --    0.42741   0.42962   0.43078   0.43750   0.43777
 Alpha virt. eigenvalues --    0.44106   0.44434   0.44644   0.45164   0.45400
 Alpha virt. eigenvalues --    0.45757   0.45933   0.46362   0.47022   0.47114
 Alpha virt. eigenvalues --    0.47257   0.47398   0.47972   0.48151   0.48472
 Alpha virt. eigenvalues --    0.49354   0.49489   0.50463   0.50983   0.51287
 Alpha virt. eigenvalues --    0.51487   0.51792   0.52415   0.52533   0.52655
 Alpha virt. eigenvalues --    0.53553   0.53866   0.53974   0.54337   0.54579
 Alpha virt. eigenvalues --    0.54722   0.54848   0.55342   0.55630   0.55785
 Alpha virt. eigenvalues --    0.56154   0.56236   0.56648   0.56842   0.57088
 Alpha virt. eigenvalues --    0.57343   0.57616   0.57927   0.58302   0.58439
 Alpha virt. eigenvalues --    0.58765   0.58927   0.59066   0.59226   0.59402
 Alpha virt. eigenvalues --    0.59752   0.59799   0.59939   0.60201   0.60658
 Alpha virt. eigenvalues --    0.60799   0.60969   0.61354   0.61447   0.61731
 Alpha virt. eigenvalues --    0.62031   0.62257   0.62717   0.62990   0.63174
 Alpha virt. eigenvalues --    0.63783   0.64160   0.64623   0.64731   0.65423
 Alpha virt. eigenvalues --    0.65950   0.66198   0.66895   0.67419   0.67702
 Alpha virt. eigenvalues --    0.68200   0.68398   0.68909   0.69903   0.70297
 Alpha virt. eigenvalues --    0.70775   0.71190   0.71712   0.72399   0.72589
 Alpha virt. eigenvalues --    0.73096   0.73670   0.74039   0.74116   0.74345
 Alpha virt. eigenvalues --    0.74765   0.75436   0.75733   0.76231   0.76961
 Alpha virt. eigenvalues --    0.77313   0.78103   0.78913   0.79289   0.79701
 Alpha virt. eigenvalues --    0.80018   0.80095   0.80285   0.80945   0.81347
 Alpha virt. eigenvalues --    0.81763   0.81990   0.82946   0.83359   0.83815
 Alpha virt. eigenvalues --    0.84202   0.84573   0.84923   0.85469   0.86568
 Alpha virt. eigenvalues --    0.87032   0.87120   0.87356   0.87861   0.88480
 Alpha virt. eigenvalues --    0.88934   0.89247   0.89530   0.90113   0.90921
 Alpha virt. eigenvalues --    0.91280   0.91557   0.92148   0.92950   0.93061
 Alpha virt. eigenvalues --    0.93764   0.94163   0.94259   0.94842   0.95289
 Alpha virt. eigenvalues --    0.95536   0.96313   0.96946   0.97622   0.98424
 Alpha virt. eigenvalues --    0.99052   0.99396   1.00167   1.00784   1.00859
 Alpha virt. eigenvalues --    1.01329   1.02293   1.02786   1.03378   1.04174
 Alpha virt. eigenvalues --    1.04368   1.04925   1.06155   1.07071   1.07934
 Alpha virt. eigenvalues --    1.08054   1.08184   1.08524   1.09326   1.09528
 Alpha virt. eigenvalues --    1.10337   1.10464   1.11069   1.11514   1.12161
 Alpha virt. eigenvalues --    1.12733   1.13897   1.14264   1.14727   1.16129
 Alpha virt. eigenvalues --    1.16878   1.16948   1.18963   1.19205   1.20831
 Alpha virt. eigenvalues --    1.22116   1.22680   1.24711   1.24781   1.25728
 Alpha virt. eigenvalues --    1.25983   1.26559   1.27181   1.28410   1.28683
 Alpha virt. eigenvalues --    1.28831   1.30281   1.30695   1.31413   1.32040
 Alpha virt. eigenvalues --    1.32529   1.33481   1.33910   1.35151   1.35329
 Alpha virt. eigenvalues --    1.35642   1.36175   1.37032   1.37797   1.38304
 Alpha virt. eigenvalues --    1.38800   1.39085   1.40182   1.40893   1.41189
 Alpha virt. eigenvalues --    1.41431   1.41970   1.42100   1.42423   1.42668
 Alpha virt. eigenvalues --    1.43279   1.43869   1.44854   1.44892   1.45345
 Alpha virt. eigenvalues --    1.46149   1.46308   1.46616   1.46753   1.47527
 Alpha virt. eigenvalues --    1.48238   1.48563   1.48854   1.49596   1.49876
 Alpha virt. eigenvalues --    1.50376   1.50934   1.51314   1.51698   1.51761
 Alpha virt. eigenvalues --    1.52021   1.52613   1.53087   1.53397   1.53578
 Alpha virt. eigenvalues --    1.54090   1.54728   1.54889   1.55733   1.55775
 Alpha virt. eigenvalues --    1.55922   1.56483   1.56720   1.57294   1.57548
 Alpha virt. eigenvalues --    1.58004   1.58547   1.58924   1.59243   1.60189
 Alpha virt. eigenvalues --    1.60855   1.61174   1.61270   1.62162   1.62312
 Alpha virt. eigenvalues --    1.62702   1.63168   1.63485   1.64164   1.64551
 Alpha virt. eigenvalues --    1.65795   1.66498   1.66595   1.66699   1.66932
 Alpha virt. eigenvalues --    1.67931   1.67984   1.68796   1.70333   1.70449
 Alpha virt. eigenvalues --    1.71119   1.71912   1.72753   1.72956   1.73343
 Alpha virt. eigenvalues --    1.73632   1.73929   1.74283   1.74550   1.75272
 Alpha virt. eigenvalues --    1.76473   1.76525   1.76880   1.77113   1.77369
 Alpha virt. eigenvalues --    1.77593   1.78120   1.78877   1.79173   1.79468
 Alpha virt. eigenvalues --    1.79580   1.79978   1.81418   1.81681   1.81904
 Alpha virt. eigenvalues --    1.82992   1.83615   1.84196   1.84686   1.85169
 Alpha virt. eigenvalues --    1.85604   1.85911   1.87658   1.88085   1.88524
 Alpha virt. eigenvalues --    1.89108   1.89477   1.90347   1.90854   1.91261
 Alpha virt. eigenvalues --    1.92053   1.92245   1.93047   1.93164   1.93726
 Alpha virt. eigenvalues --    1.93835   1.94595   1.95084   1.95644   1.96108
 Alpha virt. eigenvalues --    1.96206   1.97397   1.98094   1.98653   1.98852
 Alpha virt. eigenvalues --    1.99758   2.00499   2.00981   2.01929   2.02161
 Alpha virt. eigenvalues --    2.02726   2.02939   2.03420   2.03449   2.04617
 Alpha virt. eigenvalues --    2.04840   2.05352   2.05579   2.06615   2.07273
 Alpha virt. eigenvalues --    2.08120   2.08873   2.09043   2.09486   2.11261
 Alpha virt. eigenvalues --    2.11543   2.11816   2.12428   2.13326   2.13492
 Alpha virt. eigenvalues --    2.14655   2.15040   2.16109   2.16605   2.17125
 Alpha virt. eigenvalues --    2.17473   2.17802   2.18347   2.19391   2.20128
 Alpha virt. eigenvalues --    2.21684   2.22541   2.23046   2.23508   2.25050
 Alpha virt. eigenvalues --    2.25196   2.26119   2.28622   2.29065   2.29364
 Alpha virt. eigenvalues --    2.29656   2.31157   2.31644   2.32180   2.32531
 Alpha virt. eigenvalues --    2.32990   2.33451   2.33722   2.35061   2.35465
 Alpha virt. eigenvalues --    2.36003   2.36511   2.36633   2.37000   2.38250
 Alpha virt. eigenvalues --    2.39008   2.39525   2.40995   2.41503   2.41690
 Alpha virt. eigenvalues --    2.41925   2.44083   2.44603   2.44776   2.45207
 Alpha virt. eigenvalues --    2.45363   2.46471   2.47540   2.48161   2.48380
 Alpha virt. eigenvalues --    2.49755   2.50221   2.50756   2.51289   2.51971
 Alpha virt. eigenvalues --    2.53822   2.54143   2.54650   2.55354   2.55603
 Alpha virt. eigenvalues --    2.56275   2.56616   2.57049   2.57627   2.57962
 Alpha virt. eigenvalues --    2.58592   2.59706   2.60128   2.60589   2.60791
 Alpha virt. eigenvalues --    2.61348   2.62020   2.62517   2.63045   2.63366
 Alpha virt. eigenvalues --    2.63692   2.63987   2.64555   2.65438   2.65702
 Alpha virt. eigenvalues --    2.65961   2.66437   2.67547   2.68275   2.69420
 Alpha virt. eigenvalues --    2.69767   2.70264   2.71082   2.72285   2.72406
 Alpha virt. eigenvalues --    2.73034   2.73567   2.73706   2.74249   2.74518
 Alpha virt. eigenvalues --    2.75522   2.75569   2.76417   2.77100   2.77447
 Alpha virt. eigenvalues --    2.77784   2.78202   2.78382   2.78738   2.79555
 Alpha virt. eigenvalues --    2.80358   2.81138   2.82720   2.83136   2.83999
 Alpha virt. eigenvalues --    2.85191   2.85630   2.85955   2.86267   2.86797
 Alpha virt. eigenvalues --    2.87247   2.87719   2.88184   2.88875   2.89533
 Alpha virt. eigenvalues --    2.90826   2.90907   2.92314   2.92592   2.92964
 Alpha virt. eigenvalues --    2.93008   2.93529   2.94115   2.94965   2.95427
 Alpha virt. eigenvalues --    2.96761   2.97407   2.98845   2.99433   2.99612
 Alpha virt. eigenvalues --    3.01746   3.02045   3.04486   3.04635   3.06306
 Alpha virt. eigenvalues --    3.06749   3.08098   3.08850   3.10038   3.11215
 Alpha virt. eigenvalues --    3.12798   3.13622   3.15234   3.15949   3.16975
 Alpha virt. eigenvalues --    3.17467   3.18378   3.19815   3.20500   3.20687
 Alpha virt. eigenvalues --    3.21370   3.23437   3.25198   3.28342   3.29054
 Alpha virt. eigenvalues --    3.30539   3.31070   3.32003   3.32978   3.34976
 Alpha virt. eigenvalues --    3.35210   3.35740   3.37372   3.37667   3.38545
 Alpha virt. eigenvalues --    3.39658   3.41383   3.44627   3.46368   3.46857
 Alpha virt. eigenvalues --    3.48425   3.50462   3.51948   3.53751   3.54500
 Alpha virt. eigenvalues --    3.55964   3.56495   3.59320   3.61122   3.62965
 Alpha virt. eigenvalues --    3.66268   3.68973   3.70066   3.73347   3.75890
 Alpha virt. eigenvalues --    3.77167   3.77527   3.78079   3.80040   3.80281
 Alpha virt. eigenvalues --    3.80313   3.80499   3.80809   3.81046   3.81448
 Alpha virt. eigenvalues --    3.90262   3.91490   3.94663   3.94957   3.95935
 Alpha virt. eigenvalues --    3.98128   3.99073   4.00346   4.02176   4.04159
 Alpha virt. eigenvalues --    4.04839   4.06592   4.08337   4.11713   4.12872
 Alpha virt. eigenvalues --    4.16202   4.16533   4.18221   4.20992   4.22727
 Alpha virt. eigenvalues --    4.30467   4.31645   4.32878   4.33248   4.33933
 Alpha virt. eigenvalues --    4.38036   4.44343   4.57901   4.61215   4.67316
 Alpha virt. eigenvalues --    4.76424   4.78027   4.83384   4.85251   4.88206
 Alpha virt. eigenvalues --    4.93134   4.97519   5.17041   5.20346   5.52551
 Alpha virt. eigenvalues --    5.79509   7.76880   7.80949  17.13680  17.21725
 Alpha virt. eigenvalues --   17.28800  17.31474  17.46769  17.48517  23.41373
 Alpha virt. eigenvalues --   23.49279  23.53509  23.59354  23.66335  23.76178
 Alpha virt. eigenvalues --   23.77555  23.79297  23.80770  23.86052  23.86641
 Alpha virt. eigenvalues --   23.88176  23.89063  23.89902  23.91027  23.91216
 Alpha virt. eigenvalues --   23.91293  23.93442  23.93792  23.95313  23.96324
 Alpha virt. eigenvalues --   23.96807  23.97922  24.01316  24.04562  24.05625
 Alpha virt. eigenvalues --   24.06322  24.08604  24.09981  24.11119  24.11309
 Alpha virt. eigenvalues --   24.16872  24.18341  35.46412  35.58529  35.59254
 Alpha virt. eigenvalues --   35.59806  49.82660  49.97631 188.86854 188.92924
          Condensed to atoms (all electrons):
 Mulliken charges:
               1
     1  C   -0.246408
     2  C   -0.028970
     3  C   -0.341425
     4  C    0.055103
     5  C   -0.150948
     6  C    0.032350
     7  N   -0.223347
     8  C    0.480293
     9  O   -0.318428
    10  O   -0.314824
    11  S    0.328638
    12  C   -0.237196
    13  C    0.024118
    14  C   -0.074825
    15  C   -0.086178
    16  C    0.014635
    17  C   -0.031814
    18  C   -0.072374
    19  C   -0.091636
    20  C    0.279839
    21  N   -0.538129
    22  C    0.245623
    23  C   -0.129325
    24  C   -0.061679
    25  C   -0.117911
    26  C   -0.254148
    27  C   -0.072407
    28  C   -0.130737
    29  C   -0.045376
    30  C   -0.160017
    31  C   -0.136002
    32  C   -0.228020
    33  C   -0.186373
    34  C   -0.150893
    35  C    0.009956
    36  C    0.095696
    37  N   -0.485084
    38  S    0.545808
    39  N   -0.483486
    40  C    0.125296
    41  C    0.036921
    42  H    0.118876
    43  H    0.121343
    44  H    0.136651
    45  H    0.160026
    46  H    0.272674
    47  H    0.107534
    48  H    0.101116
    49  H    0.091617
    50  H    0.107375
    51  H    0.104441
    52  H    0.083835
    53  H    0.103175
    54  H    0.119572
    55  H    0.121979
    56  H    0.084160
    57  H    0.112710
    58  H    0.136708
    59  H    0.133167
    60  H    0.123808
    61  H    0.115188
    62  H    0.115367
    63  H    0.107622
    64  H    0.137817
    65  H    0.111622
    66  H    0.091103
    67  H    0.104199
 Sum of Mulliken charges =  -0.00000
 Mulliken charges with hydrogens summed into heavy atoms:
               1
     1  C    0.130462
     2  C   -0.028970
     3  C   -0.341425
     4  C    0.215129
     5  C   -0.150948
     6  C    0.032350
     7  N   -0.223347
     8  C    0.480293
     9  O   -0.045755
    10  O   -0.314824
    11  S    0.328638
    12  C   -0.237196
    13  C    0.024118
    14  C    0.032709
    15  C    0.014939
    16  C    0.014635
    17  C   -0.031814
    18  C    0.019243
    19  C    0.015738
    20  C    0.279839
    21  N   -0.538129
    22  C    0.245623
    23  C   -0.024884
    24  C    0.022156
    25  C   -0.117911
    26  C    0.090578
    27  C    0.011753
    28  C   -0.018027
    29  C    0.091332
    30  C   -0.026850
    31  C    0.102994
    32  C   -0.005031
    33  C    0.063066
    34  C   -0.150893
    35  C    0.101060
    36  C    0.095696
    37  N   -0.485084
    38  S    0.545808
    39  N   -0.483486
    40  C    0.125296
    41  C    0.141121
 Electronic spatial extent (au):  <R**2>=          47613.0866
 Charge=              0.0000 electrons
 Dipole moment (field-independent basis, Debye):
    X=              5.7697    Y=              2.0124    Z=              0.8554  Tot=              6.1702
 Quadrupole moment (field-independent basis, Debye-Ang):
   XX=           -270.0951   YY=           -235.2044   ZZ=           -264.6671
   XY=            -15.3956   XZ=             -8.0111   YZ=             -3.5401
 Traceless Quadrupole moment (field-independent basis, Debye-Ang):
   XX=            -13.4396   YY=             21.4511   ZZ=             -8.0116
   XY=            -15.3956   XZ=             -8.0111   YZ=             -3.5401
 Octapole moment (field-independent basis, Debye-Ang**2):
  XXX=            722.5508  YYY=              5.3151  ZZZ=            -25.9645  XYY=             42.0560
  XXY=            192.3926  XXZ=            119.3692  XZZ=             34.1195  YZZ=             17.8048
  YYZ=             15.6587  XYZ=             34.2922
 Hexadecapole moment (field-independent basis, Debye-Ang**3):
 XXXX=         -63076.4586 YYYY=          -5523.4218 ZZZZ=          -1535.9840 XXXY=          -2115.4182
 XXXZ=          -2314.5802 YYYX=            -56.9896 YYYZ=            -85.2511 ZZZX=            233.2384
 ZZZY=             -2.8771 XXYY=         -10416.0527 XXZZ=         -10600.3861 YYZZ=          -1205.2854
 XXYZ=           -572.8882 YYXZ=           -109.3535 ZZXY=             11.7247
 N-N= 4.419570504169D+03 E-N=-1.455299087761D+04  KE= 2.430785483434D+03
 Calling FoFJK, ICntrl=      2127 FMM=T ISym2X=0 I1Cent= 0 IOpClX= 0 NMat=1 NMatS=1 NMatT=0.
 ***** Axes restored to original set *****
 -------------------------------------------------------------------
 Center     Atomic                   Forces (Hartrees/Bohr)
 Number     Number              X              Y              Z
 -------------------------------------------------------------------
      1        6          -0.000086593   -0.001680616   -0.002689803
      2        6          -0.006041025    0.004478247    0.015096705
      3        6          -0.029942728    0.008204587   -0.021898289
      4        6           0.006992632   -0.008934314    0.005827005
      5        6          -0.054684428    0.006864747   -0.006536980
      6        6          -0.114448329   -0.041409827    0.044054677
      7        7           0.159414097    0.052058702   -0.053276719
      8        6           0.034634057   -0.002149718   -0.000935857
      9        8           0.010206171   -0.006891403    0.004453212
     10        8          -0.037348101   -0.013276304    0.014076481
     11       16           0.016125951    0.005479163    0.014948401
     12        6          -0.018135784   -0.005954630   -0.004088235
     13        6          -0.009201131    0.006068188    0.014042622
     14        6           0.005200267   -0.002140389   -0.014485316
     15        6          -0.004434446    0.012440011   -0.012939268
     16        6           0.007438327   -0.014359036    0.019711947
     17        6           0.004472821    0.000361029    0.008735267
     18        6          -0.004656907    0.002795649    0.000276694
     19        6           0.014681544   -0.008620058    0.012195122
     20        6          -0.007537221    0.012686914    0.013043054
     21        7           0.009435184   -0.023761726   -0.020560580
     22        6           0.002814692    0.001545808    0.005624487
     23        6          -0.002397656    0.009668589   -0.005943092
     24        6           0.003351521   -0.012253455   -0.003223343
     25        6          -0.001365394    0.005021398   -0.001792265
     26        6          -0.000240633    0.003966762    0.001183013
     27        6           0.002821508   -0.009726331   -0.013564056
     28        6           0.000107896   -0.003227913    0.013260164
     29        6          -0.009533043    0.016196367   -0.005592145
     30        6           0.008905939    0.003577331    0.012048479
     31        6          -0.009830020   -0.012211943   -0.004924264
     32        6          -0.012968757   -0.003269707   -0.005170634
     33        6          -0.009601488    0.016173625   -0.002473334
     34        6           0.009882642   -0.013488309   -0.008167082
     35        6          -0.004654635    0.008443154   -0.001718470
     36        6           0.014687560   -0.021646215   -0.016041465
     37        7           0.001011202   -0.008418108    0.008790666
     38       16           0.001841733    0.000769961    0.011850938
     39        7          -0.004285556    0.006122619    0.011100159
     40        6          -0.015416396    0.022669753   -0.013233587
     41        6           0.015378702    0.009641488   -0.008029432
     42        1           0.000496930   -0.004306934    0.001090240
     43        1           0.002928779   -0.002003132    0.004576377
     44        1           0.002850819   -0.002975134   -0.001427832
     45        1           0.004414104   -0.006617489    0.003758672
     46        1           0.003666141    0.011328338   -0.009728863
     47        1          -0.000683175    0.001021212   -0.004422260
     48        1           0.000292150   -0.000967397   -0.005420552
     49        1          -0.001345647   -0.000247682   -0.003845168
     50        1          -0.000506023   -0.001130767   -0.000873579
     51        1           0.000934764   -0.002127584    0.001226612
     52        1           0.001519718   -0.001667507    0.001251960
     53        1          -0.000351427   -0.000726398    0.001044334
     54        1          -0.002690995    0.000826412    0.002371351
     55        1           0.001200272    0.002377413    0.002730762
     56        1          -0.000660663    0.000577174   -0.001999380
     57        1           0.000495962    0.001676812   -0.002775734
     58        1          -0.000888792   -0.001022657    0.001244248
     59        1          -0.001997341   -0.000906524    0.000894679
     60        1           0.005215390    0.001090256   -0.001496331
     61        1           0.000710168    0.000322850    0.002100656
     62        1          -0.000821190   -0.000035501   -0.002609116
     63        1          -0.001219560   -0.000564288    0.001204686
     64        1           0.005028218    0.001085811    0.000146772
     65        1           0.000179526    0.002004677    0.004788403
     66        1           0.003793471    0.001058837    0.002304268
     67        1           0.004844224    0.000115113    0.000829915
 -------------------------------------------------------------------
 Cartesian Forces:  Max     0.159414097 RMS     0.018187805

 GradGradGradGradGradGradGradGradGradGradGradGradGradGradGradGradGradGrad
 Berny optimization.
 FormGI is forming the generalized inverse of G from B-inverse, IUseBI=4.
 Internal  Forces:  Max     0.175932234 RMS     0.010852314
 Search for a local minimum.
 Step number   1 out of a maximum of  402
 All quantities printed in internal units (Hartrees-Bohrs-Radians)
 Mixed Optimization -- RFO/linear search
 Second derivative matrix not updated -- first step.
 ITU=  0
     Eigenvalues ---    0.00437   0.00692   0.00794   0.00796   0.01066
     Eigenvalues ---    0.01125   0.01209   0.01211   0.01307   0.01347
     Eigenvalues ---    0.01479   0.01510   0.01531   0.01534   0.01590
     Eigenvalues ---    0.01594   0.01612   0.01634   0.01644   0.01664
     Eigenvalues ---    0.01696   0.01707   0.01709   0.01761   0.01771
     Eigenvalues ---    0.01816   0.01866   0.01898   0.01918   0.01937
     Eigenvalues ---    0.01941   0.01960   0.02003   0.02046   0.02051
     Eigenvalues ---    0.02061   0.02066   0.02067   0.02087   0.02088
     Eigenvalues ---    0.02109   0.02116   0.02127   0.02149   0.02154
     Eigenvalues ---    0.02172   0.02181   0.02186   0.02366   0.02476
     Eigenvalues ---    0.02641   0.03531   0.03531   0.03978   0.04263
     Eigenvalues ---    0.04398   0.04777   0.05069   0.05174   0.05407
     Eigenvalues ---    0.05709   0.05898   0.06059   0.06972   0.07097
     Eigenvalues ---    0.07225   0.07297   0.07385   0.07463   0.07512
     Eigenvalues ---    0.07545   0.08931   0.09709   0.11319   0.15698
     Eigenvalues ---    0.15985   0.15987   0.15990   0.15995   0.15997
     Eigenvalues ---    0.15998   0.15999   0.16000   0.16000   0.16000
     Eigenvalues ---    0.16000   0.16000   0.16000   0.16000   0.16000
     Eigenvalues ---    0.16000   0.16000   0.16569   0.19389   0.21252
     Eigenvalues ---    0.22000   0.22004   0.22449   0.22450   0.22954
     Eigenvalues ---    0.23422   0.23442   0.23530   0.23995   0.24478
     Eigenvalues ---    0.24584   0.24763   0.24787   0.24954   0.24977
     Eigenvalues ---    0.24980   0.24981   0.24993   0.24996   0.24997
     Eigenvalues ---    0.24997   0.24997   0.24998   0.24999   0.25000
     Eigenvalues ---    0.25000   0.25000   0.25000   0.27140   0.28489
     Eigenvalues ---    0.29402   0.29441   0.30051   0.30367   0.30410
     Eigenvalues ---    0.31252   0.32598   0.32614   0.33160   0.33625
     Eigenvalues ---    0.33641   0.33801   0.33945   0.33958   0.34084
     Eigenvalues ---    0.34136   0.34258   0.34280   0.34347   0.34408
     Eigenvalues ---    0.34412   0.34438   0.34510   0.34620   0.34648
     Eigenvalues ---    0.34737   0.34880   0.34903   0.35058   0.35066
[...]
 Alpha  occ. eigenvalues --   -0.33810  -0.33149  -0.32665  -0.31630  -0.31359
 Alpha  occ. eigenvalues --   -0.31059  -0.28248  -0.28217  -0.27562  -0.26755
 Alpha  occ. eigenvalues --   -0.26728  -0.26101  -0.25607  -0.22478  -0.19326
 Alpha virt. eigenvalues --   -0.11729  -0.09029  -0.03917  -0.02485  -0.02266
 Alpha virt. eigenvalues --   -0.01947  -0.00921  -0.00758  -0.00660   0.00417
 Alpha virt. eigenvalues --    0.01927   0.02212   0.02930   0.03531   0.03971
 Alpha virt. eigenvalues --    0.04219   0.04539   0.04606   0.04822   0.05195
 Alpha virt. eigenvalues --    0.05675   0.05972   0.06426   0.07137   0.07394
 Alpha virt. eigenvalues --    0.08443   0.08629   0.08923   0.09091   0.09977
 Alpha virt. eigenvalues --    0.10250   0.11138   0.11316   0.11788   0.11896
 Alpha virt. eigenvalues --    0.12439   0.12799   0.12941   0.13005   0.13279
 Alpha virt. eigenvalues --    0.13516   0.14039   0.14767   0.14895   0.15387
 Alpha virt. eigenvalues --    0.15575   0.16181   0.16270   0.16803   0.17070
 Alpha virt. eigenvalues --    0.17526   0.18162   0.18240   0.18843   0.19102
 Alpha virt. eigenvalues --    0.19728   0.20302   0.20748   0.21045   0.21678
 Alpha virt. eigenvalues --    0.22346   0.22727   0.23086   0.24213   0.24636
 Alpha virt. eigenvalues --    0.24663   0.25448   0.25715   0.25819   0.26762
 Alpha virt. eigenvalues --    0.26931   0.27226   0.27774   0.28390   0.28982
 Alpha virt. eigenvalues --    0.29384   0.29688   0.29838   0.30008   0.30896
 Alpha virt. eigenvalues --    0.31085   0.31494   0.31965   0.32182   0.32660
 Alpha virt. eigenvalues --    0.32877   0.33432   0.33805   0.34227   0.34642
 Alpha virt. eigenvalues --    0.34969   0.35353   0.35836   0.36225   0.36396
 Alpha virt. eigenvalues --    0.36620   0.37014   0.37290   0.37548   0.37784
 Alpha virt. eigenvalues --    0.38360   0.38791   0.39029   0.39554   0.39720
 Alpha virt. eigenvalues --    0.40008   0.40153   0.40515   0.40892   0.41413
 Alpha virt. eigenvalues --    0.41466   0.41770   0.41978   0.42138   0.42439
 Alpha virt. eigenvalues --    0.42804   0.43075   0.43471   0.43687   0.43701
 Alpha virt. eigenvalues --    0.43865   0.44245   0.44759   0.44852   0.45358
 Alpha virt. eigenvalues --    0.45766   0.46272   0.46388   0.46645   0.47086
 Alpha virt. eigenvalues --    0.47871   0.48269   0.48375   0.48900   0.49152
 Alpha virt. eigenvalues --    0.49464   0.49639   0.50285   0.50489   0.50788
 Alpha virt. eigenvalues --    0.51211   0.51341   0.51416   0.52266   0.52958
 Alpha virt. eigenvalues --    0.53040   0.53871   0.54201   0.54296   0.54524
 Alpha virt. eigenvalues --    0.54956   0.55303   0.55528   0.55890   0.56086
 Alpha virt. eigenvalues --    0.56222   0.56771   0.57035   0.57087   0.57466
 Alpha virt. eigenvalues --    0.57660   0.57934   0.58261   0.58290   0.58794
 Alpha virt. eigenvalues --    0.58891   0.59060   0.59288   0.59654   0.59889
 Alpha virt. eigenvalues --    0.60220   0.60587   0.60854   0.61049   0.61279
 Alpha virt. eigenvalues --    0.61493   0.61656   0.61920   0.62040   0.62127
 Alpha virt. eigenvalues --    0.62345   0.62841   0.62989   0.63365   0.63602
 Alpha virt. eigenvalues --    0.63810   0.64263   0.65025   0.65410   0.65663
 Alpha virt. eigenvalues --    0.66768   0.66860   0.67401   0.67959   0.68280
 Alpha virt. eigenvalues --    0.68817   0.69330   0.69792   0.70407   0.71554
 Alpha virt. eigenvalues --    0.72343   0.72517   0.72957   0.73109   0.73737
 Alpha virt. eigenvalues --    0.74149   0.74371   0.75005   0.75521   0.76385
 Alpha virt. eigenvalues --    0.76739   0.77459   0.77759   0.77958   0.78836
 Alpha virt. eigenvalues --    0.79118   0.79475   0.79498   0.79847   0.80250
 Alpha virt. eigenvalues --    0.80866   0.81544   0.82137   0.82298   0.82714
 Alpha virt. eigenvalues --    0.82874   0.83821   0.84217   0.84365   0.84712
 Alpha virt. eigenvalues --    0.85353   0.85738   0.86212   0.86570   0.86812
 Alpha virt. eigenvalues --    0.87546   0.88201   0.88834   0.89169   0.89679
 Alpha virt. eigenvalues --    0.89898   0.90409   0.91553   0.92047   0.92103
 Alpha virt. eigenvalues --    0.92632   0.92995   0.93318   0.93643   0.94393
 Alpha virt. eigenvalues --    0.94810   0.94921   0.95682   0.96335   0.97428
 Alpha virt. eigenvalues --    0.97966   0.98522   0.98899   0.99076   0.99631
 Alpha virt. eigenvalues --    1.00662   1.00768   1.01058   1.01398   1.01528
 Alpha virt. eigenvalues --    1.02792   1.02887   1.03247   1.03910   1.04292
 Alpha virt. eigenvalues --    1.04694   1.04867   1.05498   1.06337   1.07171
 Alpha virt. eigenvalues --    1.07766   1.08029   1.08267   1.08745   1.09426
 Alpha virt. eigenvalues --    1.10247   1.10313   1.11365   1.12476   1.13047
 Alpha virt. eigenvalues --    1.13354   1.14431   1.14813   1.15252   1.16402
 Alpha virt. eigenvalues --    1.17110   1.18368   1.18634   1.18972   1.20612
 Alpha virt. eigenvalues --    1.21615   1.22730   1.23576   1.24643   1.25474
 Alpha virt. eigenvalues --    1.25822   1.26110   1.26634   1.26905   1.27330
 Alpha virt. eigenvalues --    1.29534   1.30536   1.30596   1.30954   1.32066
 Alpha virt. eigenvalues --    1.32642   1.33213   1.33941   1.34643   1.35153
 Alpha virt. eigenvalues --    1.36535   1.36714   1.37135   1.37864   1.38636
 Alpha virt. eigenvalues --    1.39272   1.39805   1.40301   1.40336   1.40788
 Alpha virt. eigenvalues --    1.41149   1.41539   1.42027   1.43300   1.43687
 Alpha virt. eigenvalues --    1.44164   1.44179   1.45153   1.45742   1.45810
 Alpha virt. eigenvalues --    1.46036   1.46180   1.46870   1.47207   1.47368
 Alpha virt. eigenvalues --    1.48268   1.48644   1.48791   1.49515   1.49760
 Alpha virt. eigenvalues --    1.49842   1.50155   1.50640   1.51199   1.51523
 Alpha virt. eigenvalues --    1.51868   1.52047   1.52532   1.52981   1.53364
 Alpha virt. eigenvalues --    1.53496   1.54504   1.54875   1.55422   1.55507
 Alpha virt. eigenvalues --    1.56215   1.57005   1.57228   1.57321   1.57577
 Alpha virt. eigenvalues --    1.58703   1.59019   1.59293   1.59858   1.60436
 Alpha virt. eigenvalues --    1.60959   1.61348   1.62011   1.62286   1.63079
 Alpha virt. eigenvalues --    1.63379   1.64231   1.65070   1.65427   1.65737
 Alpha virt. eigenvalues --    1.66040   1.67465   1.67575   1.67863   1.68186
 Alpha virt. eigenvalues --    1.68495   1.68703   1.69050   1.69450   1.70140
 Alpha virt. eigenvalues --    1.71428   1.71708   1.72117   1.72670   1.72976
 Alpha virt. eigenvalues --    1.73921   1.74303   1.74761   1.75267   1.75527
 Alpha virt. eigenvalues --    1.76237   1.77005   1.77104   1.77357   1.77662
 Alpha virt. eigenvalues --    1.77907   1.78251   1.78496   1.79145   1.79222
 Alpha virt. eigenvalues --    1.79799   1.80667   1.81446   1.81665   1.82393
 Alpha virt. eigenvalues --    1.83298   1.83855   1.84656   1.85236   1.86171
 Alpha virt. eigenvalues --    1.86360   1.86432   1.87101   1.88554   1.88699
 Alpha virt. eigenvalues --    1.89438   1.90184   1.91381   1.91628   1.92166
 Alpha virt. eigenvalues --    1.92497   1.92791   1.92900   1.93365   1.93862
 Alpha virt. eigenvalues --    1.94437   1.95373   1.95683   1.96163   1.96358
 Alpha virt. eigenvalues --    1.97665   1.97997   1.98929   1.98953   1.99720
 Alpha virt. eigenvalues --    1.99859   2.00475   2.01471   2.01830   2.02392
 Alpha virt. eigenvalues --    2.03399   2.03774   2.04460   2.05086   2.05936
 Alpha virt. eigenvalues --    2.06058   2.06588   2.07221   2.07792   2.08256
 Alpha virt. eigenvalues --    2.08494   2.10111   2.10481   2.11226   2.11643
 Alpha virt. eigenvalues --    2.11925   2.12582   2.13184   2.13670   2.13812
 Alpha virt. eigenvalues --    2.14221   2.15612   2.15919   2.16243   2.16803
 Alpha virt. eigenvalues --    2.17751   2.18598   2.18729   2.19961   2.21470
 Alpha virt. eigenvalues --    2.22603   2.22830   2.24645   2.25365   2.26753
 Alpha virt. eigenvalues --    2.27698   2.28069   2.28790   2.29457   2.30906
 Alpha virt. eigenvalues --    2.31497   2.31851   2.32245   2.32948   2.33452
 Alpha virt. eigenvalues --    2.33981   2.34170   2.34616   2.35116   2.35358
 Alpha virt. eigenvalues --    2.36350   2.37672   2.38057   2.38848   2.39251
 Alpha virt. eigenvalues --    2.40308   2.40834   2.41950   2.42473   2.42909
 Alpha virt. eigenvalues --    2.43442   2.43773   2.45221   2.45958   2.46338
 Alpha virt. eigenvalues --    2.46747   2.48969   2.49701   2.50027   2.50691
 Alpha virt. eigenvalues --    2.51118   2.52060   2.52269   2.52440   2.53421
 Alpha virt. eigenvalues --    2.53735   2.53971   2.54636   2.55295   2.56110
 Alpha virt. eigenvalues --    2.56842   2.57324   2.58554   2.59094   2.59838
 Alpha virt. eigenvalues --    2.59951   2.60290   2.61385   2.62023   2.62309
 Alpha virt. eigenvalues --    2.62976   2.63523   2.63874   2.64117   2.64512
 Alpha virt. eigenvalues --    2.64871   2.65297   2.65423   2.66487   2.67088
 Alpha virt. eigenvalues --    2.67368   2.67590   2.68559   2.69178   2.69808
 Alpha virt. eigenvalues --    2.70446   2.70502   2.70752   2.71552   2.71943
 Alpha virt. eigenvalues --    2.72151   2.72700   2.72837   2.73486   2.73840
 Alpha virt. eigenvalues --    2.74548   2.75018   2.75613   2.76981   2.77415
 Alpha virt. eigenvalues --    2.77698   2.78964   2.79343   2.80003   2.80698
 Alpha virt. eigenvalues --    2.82052   2.82713   2.83260   2.83535   2.84423
 Alpha virt. eigenvalues --    2.85568   2.86406   2.86642   2.87115   2.87713
 Alpha virt. eigenvalues --    2.88997   2.89235   2.89397   2.89805   2.90502
 Alpha virt. eigenvalues --    2.90784   2.91130   2.92003   2.92575   2.92821
 Alpha virt. eigenvalues --    2.93428   2.94156   2.94923   2.95711   2.96579
 Alpha virt. eigenvalues --    2.96639   2.98480   2.99031   2.99129   3.01181
 Alpha virt. eigenvalues --    3.03283   3.04175   3.05065   3.05227   3.06588
 Alpha virt. eigenvalues --    3.06698   3.07476   3.09740   3.10723   3.12560
 Alpha virt. eigenvalues --    3.14257   3.15414   3.16437   3.16930   3.18015
 Alpha virt. eigenvalues --    3.18351   3.19337   3.20067   3.20474   3.21927
 Alpha virt. eigenvalues --    3.22778   3.24370   3.24954   3.28070   3.28773
 Alpha virt. eigenvalues --    3.31710   3.32656   3.34277   3.34943   3.35543
 Alpha virt. eigenvalues --    3.35978   3.36511   3.37215   3.38121   3.38729
 Alpha virt. eigenvalues --    3.41537   3.44775   3.45756   3.46278   3.48582
 Alpha virt. eigenvalues --    3.51344   3.54009   3.54399   3.54657   3.56005
 Alpha virt. eigenvalues --    3.56693   3.58233   3.58850   3.61057   3.64465
 Alpha virt. eigenvalues --    3.67695   3.69361   3.70445   3.74243   3.76426
 Alpha virt. eigenvalues --    3.76836   3.77000   3.78165   3.78743   3.80482
 Alpha virt. eigenvalues --    3.81219   3.81689   3.83467   3.85880   3.86830
 Alpha virt. eigenvalues --    3.89858   3.93101   3.93753   3.96107   3.96339
 Alpha virt. eigenvalues --    3.97472   3.98280   3.99578   4.03278   4.04107
 Alpha virt. eigenvalues --    4.07971   4.08436   4.10860   4.11298   4.11404
 Alpha virt. eigenvalues --    4.14525   4.18487   4.20406   4.21217   4.24211
 Alpha virt. eigenvalues --    4.27194   4.31723   4.34007   4.37070   4.38557
 Alpha virt. eigenvalues --    4.47213   4.54475   4.61312   4.69464   4.72300
 Alpha virt. eigenvalues --    4.78643   4.80084   4.83147   4.84814   4.90806
 Alpha virt. eigenvalues --    4.97063   5.03573   5.17064   5.29766   5.56215
 Alpha virt. eigenvalues --    5.81050   7.79302   7.80825  17.12674  17.19351
 Alpha virt. eigenvalues --   17.29385  17.31736  17.49512  17.51907  23.42808
 Alpha virt. eigenvalues --   23.50298  23.53423  23.62153  23.70487  23.77971
 Alpha virt. eigenvalues --   23.80409  23.81781  23.83191  23.85638  23.86107
 Alpha virt. eigenvalues --   23.86737  23.87617  23.88875  23.90500  23.91247
 Alpha virt. eigenvalues --   23.92357  23.92513  23.93372  23.93548  23.94629
 Alpha virt. eigenvalues --   23.99837  24.02105  24.03724  24.04390  24.10227
 Alpha virt. eigenvalues --   24.10362  24.12065  24.12111  24.12840  24.17431
 Alpha virt. eigenvalues --   24.17698  24.43761  35.47171  35.59327  35.60214
 Alpha virt. eigenvalues --   35.81856  49.85553  50.02087 188.89888 188.92372
          Condensed to atoms (all electrons):
 Mulliken charges:
               1
     1  C   -0.254572
     2  C   -0.021305
     3  C   -0.305510
     4  C    0.062481
     5  C   -0.207129
     6  C   -0.020496
     7  N   -0.232397
     8  C    0.458789
     9  O   -0.302390
    10  O   -0.325938
    11  S    0.379355
    12  C   -0.286042
    13  C    0.090890
    14  C   -0.100369
    15  C   -0.083477
    16  C    0.015086
    17  C   -0.030140
    18  C   -0.075943
    19  C   -0.087025
    20  C    0.305601
    21  N   -0.542411
    22  C    0.183731
    23  C   -0.086223
    24  C   -0.073987
    25  C   -0.101363
    26  C   -0.256415
    27  C   -0.078811
    28  C   -0.111020
    29  C   -0.011370
    30  C   -0.175528
    31  C   -0.152082
    32  C   -0.235271
    33  C   -0.170206
    34  C   -0.148000
    35  C   -0.004037
    36  C    0.106635
    37  N   -0.484051
    38  S    0.556899
    39  N   -0.512282
    40  C    0.145875
    41  C    0.011981
    42  H    0.139934
    43  H    0.120266
    44  H    0.139629
    45  H    0.139419
    46  H    0.253926
    47  H    0.113225
    48  H    0.101423
    49  H    0.095957
    50  H    0.112190
    51  H    0.097178
    52  H    0.085221
    53  H    0.111019
    54  H    0.127641
    55  H    0.114988
    56  H    0.087000
    57  H    0.115588
    58  H    0.134511
    59  H    0.136590
    60  H    0.118356
    61  H    0.119080
    62  H    0.119322
    63  H    0.109259
    64  H    0.130782
    65  H    0.116501
    66  H    0.095936
    67  H    0.123528
 Sum of Mulliken charges =  -0.00000
 Mulliken charges with hydrogens summed into heavy atoms:
               1
     1  C    0.145257
     2  C   -0.021305
     3  C   -0.305510
     4  C    0.201900
     5  C   -0.207129
     6  C   -0.020496
     7  N   -0.232397
     8  C    0.458789
     9  O   -0.048464
    10  O   -0.325938
    11  S    0.379355
    12  C   -0.286042
    13  C    0.090890
    14  C    0.012856
    15  C    0.017947
    16  C    0.015086
    17  C   -0.030140
    18  C    0.020014
    19  C    0.025165
    20  C    0.305601
    21  N   -0.542411
    22  C    0.183731
    23  C    0.010955
    24  C    0.011234
    25  C   -0.101363
    26  C    0.097233
    27  C    0.008189
    28  C    0.004568
    29  C    0.123141
    30  C   -0.038938
    31  C    0.085353
    32  C   -0.006690
    33  C    0.077077
    34  C   -0.148000
    35  C    0.091899
    36  C    0.106635
    37  N   -0.484051
    38  S    0.556899
    39  N   -0.512282
    40  C    0.145875
    41  C    0.135508
 Electronic spatial extent (au):  <R**2>=          46297.0617
 Charge=             -0.0000 electrons
 Dipole moment (field-independent basis, Debye):
    X=             10.8828    Y=              3.6901    Z=             -0.3610  Tot=             11.4970
 Quadrupole moment (field-independent basis, Debye-Ang):
   XX=           -296.4459   YY=           -240.4839   ZZ=           -254.5177
   XY=            -28.3299   XZ=              7.0961   YZ=              2.1625
 Traceless Quadrupole moment (field-independent basis, Debye-Ang):
   XX=            -32.6300   YY=             23.3319   ZZ=              9.2981
   XY=            -28.3299   XZ=              7.0961   YZ=              2.1625
 Octapole moment (field-independent basis, Debye-Ang**2):
  XXX=           1304.8220  YYY=             41.0001  ZZZ=             10.4043  XYY=             80.4115
  XXY=            223.1488  XXZ=            -85.8440  XZZ=            -19.0537  YZZ=              7.9207
  YYZ=            -13.2318  XYZ=             11.4637
 Hexadecapole moment (field-independent basis, Debye-Ang**3):
 XXXX=         -64950.7833 YYYY=          -7056.8119 ZZZZ=          -1313.7916 XXXY=          -2489.4210
 XXXZ=             -7.3936 YYYX=           -311.7769 YYYZ=            -27.2714 ZZZX=             19.7750
 ZZZY=            -21.6683 XXYY=          -9954.4162 XXZZ=          -9381.3769 YYZZ=          -1430.6106
 XXYZ=            130.1527 YYXZ=             59.2717 ZZXY=             77.2487
 N-N= 4.431257048764D+03 E-N=-1.457662734140D+04  KE= 2.431764887537D+03
 1\1\GINC-CN113\FOpt\RB3LYP\6-311G(d,p)\C33H26N4O2S2\R2532\04-Aug-2021\
 0\\#N B3LYP/6-311G(d,p) OPT\\C61H46O6N4S3\\0,1\C,1.0221368044,-1.26442
 15526,-2.5971898364\C,0.3739136478,-0.4320871849,-1.5240399717\C,0.473
 4533607,-0.694034024,-0.1525499309\C,1.1941242215,-1.7745476075,0.4117
 155792\C,1.3881293129,-2.1617018753,1.7094768186\C,0.8536917615,-1.489
 433521,2.837673839\N,0.4580016602,-1.0032949913,3.8134204903\C,2.22610
 20584,-3.3834116663,1.9511334324\O,2.405196927,-3.7475943906,3.2398169
 644\O,2.7229371006,-4.0215557583,1.0600942739\S,-0.4204035606,0.503495
 786,0.7733823886\C,-0.9147509132,1.3405962236,-0.6789675479\C,-1.74732
 50434,2.5294206961,-0.6007877576\C,-2.1589227634,3.0637706315,0.610405
 054\C,-2.9735707086,4.2073267348,0.7323917735\C,-3.447925331,4.9346469
 125,-0.3475419158\C,-4.2768609811,6.1342109844,-0.1721117609\C,-4.1032
 700433,6.9522256944,0.9598564867\C,-4.880518492,8.0788575281,1.1982992
 287\C,-5.8838061552,8.408784073,0.2787370986\N,-6.7585186148,9.4842178
 373,0.2734741741\C,-6.8897412421,10.4738638301,1.2665538147\C,-7.11353
 0926,11.8118086369,0.9138881134\C,-7.2686107871,12.7865627161,1.893884
 0499\C,-7.1999993889,12.4762141447,3.2543669868\C,-7.3298300343,13.543
 8689511,4.3130067776\C,-6.990975808,11.1364785416,3.5978850834\C,-6.84
 81960148,10.1487155921,2.6310563725\C,-7.5002899097,9.5487794156,-1.00
 71141886\C,-7.1783134942,8.1874893327,-1.704966965\C,-8.5166147207,7.4
 081108557,-1.6974652504\C,-9.577424518,8.5141815045,-1.7889845526\C,-9
 .0409107926,9.6118331412,-0.8506937948\C,-6.0603991155,7.614865545,-0.
 8718363726\C,-5.275497048,6.5064489803,-1.1011339239\C,-3.0512867726,4
 .4248698791,-1.6362289919\N,-3.369800469,4.9650320794,-2.8142310379\S,
 -2.6765726702,4.0499367058,-3.977843529\N,-1.9371983109,2.9315168687,-
 3.0343136281\C,-2.2096242887,3.2396357983,-1.765595181\C,-0.4033719047
 ,0.7055385209,-1.8014006452\H,2.1102483329,-1.2836320914,-2.489882756\
 H,0.7910163067,-0.8584824243,-3.5824502648\H,0.6717964972,-2.299951025
 4,-2.5710545784\H,1.6908522991,-2.4262559801,-0.3019062395\H,1.9486405
 276,-3.1431598001,3.8417813927\H,-1.8550631004,2.5764993804,1.53005797
 97\H,-3.2613285802,4.5087109425,1.7317322869\H,-3.3046041442,6.7272217
 087,1.6569044658\H,-4.6792287256,8.7000326049,2.0598956706\H,-7.162898
 0736,12.0958458477,-0.1298626258\H,-7.4411046013,13.8138464366,1.58888
 84481\H,-7.8916621642,14.4048999637,3.9442202526\H,-6.3463830175,13.90
 66710145,4.6320990768\H,-7.8396524835,13.1642309347,5.2020470451\H,-6.
 9588526574,10.8530466261,4.6452987332\H,-6.7336166315,9.1157995508,2.9
 331281731\H,-7.1274456799,10.388733023,-1.6027512568\H,-6.862167867,8.
 3543600743,-2.7380516521\H,-8.6214429949,6.8635105517,-0.7534826022\H,
 -8.5764526037,6.6773913195,-2.5069526584\H,-10.5775483168,8.1753010721
 ,-1.5090957548\H,-9.6372665052,8.8897976522,-2.8167659113\H,-9.3028783
 664,9.3800570467,0.1851881399\H,-9.4477952095,10.5996617805,-1.0745380
 94\H,-5.4215607466,5.9179798092,-1.9961342495\H,-0.5964575265,1.069812
 4117,-2.7983150387\\Version=ES64L-G16RevB.01\State=1-A\HF=-2439.443741
 2\RMSD=5.089e-09\RMSF=8.561e-07\Dipole=-2.5982459,3.4481996,-1.3487587
 \Quadrupole=-1.9986422,-15.2913769,17.2900191,15.2649541,-8.9820572,18
 .9890686\PG=C01 [X(C33H26N4O2S2)]\\@


 Children are likely to live up to what you believe of them.
 -- Lady Bird Johnson
 Job cpu time:       0 days 17 hours  3 minutes  0.9 seconds.
 Elapsed time:       0 days 17 hours  3 minutes  3.6 seconds.
 File lengths (MBytes):  RWF=    511 Int=      0 D2E=      0 Chk=     62 Scr=      1
 Normal termination of Gaussian 16 at Wed Aug  4 04:40:46 2021.
