 Entering Gaussian System, Link 0=/usr/local/apps//g09/g09
 Input=ES.com
 Output=ES.out
 Initial command:
 /usr/local/apps//g09/l1.exe "/tmp/bnp.463919.sequoia/Gau-13656.inp" -scrdir="/tmp/bnp.463919.sequoia/"
 Entering Link 1 = /usr/local/apps//g09/l1.exe PID=     13657.
  
 Copyright (c) 1988,1990,1992,1993,1995,1998,2003,2009,2013,
            Gaussian, Inc.  All Rights Reserved.
  
 This is part of the Gaussian(R) 09 program.  It is based on
 the Gaussian(R) 03 system (copyright 2003, Gaussian, Inc.),
 the Gaussian(R) 98 system (copyright 1998, Gaussian, Inc.),
 the Gaussian(R) 94 system (copyright 1995, Gaussian, Inc.),
 the Gaussian 92(TM) system (copyright 1992, Gaussian, Inc.),
 the Gaussian 90(TM) system (copyright 1990, Gaussian, Inc.),
 the Gaussian 88(TM) system (copyright 1988, Gaussian, Inc.),
 the Gaussian 86(TM) system (copyright 1986, Carnegie Mellon
 University), and the Gaussian 82(TM) system (copyright 1983,
 Carnegie Mellon University). Gaussian is a federally registered
 trademark of Gaussian, Inc.
  
 This software contains proprietary and confidential information,
 including trade secrets, belonging to Gaussian, Inc.
  
 This software is provided under written license and may be
 used, copied, transmitted, or stored only in accord with that
 written license.
  
 The following legend is applicable only to US Government
 contracts under FAR:
  
                    RESTRICTED RIGHTS LEGEND
  
 Use, reproduction and disclosure by the US Government is
 subject to restrictions as set forth in subparagraphs (a)
 and (c) of the Commercial Computer Software - Restricted
 Rights clause in FAR 52.227-19.
  
 Gaussian, Inc.
 340 Quinnipiac St., Bldg. 40, Wallingford CT 06492
  
  
 ---------------------------------------------------------------
 Warning -- This program may not be used in any manner that
 competes with the business of Gaussian, Inc. or will provide
 assistance to any competitor of Gaussian, Inc.  The licensee
 of this program is prohibited from giving any competitor of
 Gaussian, Inc. access to this program.  By using this program,
 the user acknowledges that Gaussian, Inc. is engaged in the
 business of creating and licensing software in the field of
 computational chemistry and represents and warrants to the
 licensee that it is not a competitor of Gaussian, Inc. and that
 it will not use this program in any manner prohibited above.
 ---------------------------------------------------------------
  

 Cite this work as:
 Gaussian 09, Revision D.01,
 M. J. Frisch, G. W. Trucks, H. B. Schlegel, G. E. Scuseria, 
 M. A. Robb, J. R. Cheeseman, G. Scalmani, V. Barone, B. Mennucci, 
 G. A. Petersson, H. Nakatsuji, M. Caricato, X. Li, H. P. Hratchian, 
 A. F. Izmaylov, J. Bloino, G. Zheng, J. L. Sonnenberg, M. Hada, 
 M. Ehara, K. Toyota, R. Fukuda, J. Hasegawa, M. Ishida, T. Nakajima, 
 Y. Honda, O. Kitao, H. Nakai, T. Vreven, J. A. Montgomery, Jr., 
 J. E. Peralta, F. Ogliaro, M. Bearpark, J. J. Heyd, E. Brothers, 
 K. N. Kudin, V. N. Staroverov, T. Keith, R. Kobayashi, J. Normand, 
 K. Raghavachari, A. Rendell, J. C. Burant, S. S. Iyengar, J. Tomasi, 
 M. Cossi, N. Rega, J. M. Millam, M. Klene, J. E. Knox, J. B. Cross, 
 V. Bakken, C. Adamo, J. Jaramillo, R. Gomperts, R. E. Stratmann, 
 O. Yazyev, A. J. Austin, R. Cammi, C. Pomelli, J. W. Ochterski, 
 R. L. Martin, K. Morokuma, V. G. Zakrzewski, G. A. Voth, 
 P. Salvador, J. J. Dannenberg, S. Dapprich, A. D. Daniels, 
 O. Farkas, J. B. Foresman, J. V. Ortiz, J. Cioslowski, 
 and D. J. Fox, Gaussian, Inc., Wallingford CT, 2013.
 
 ******************************************
 Gaussian 09:  ES64L-G09RevD.01 24-Apr-2013
                17-Apr-2021 
 ******************************************
 %mem=8gb
 -----------------------------------
 #N TD(NStates=10) B3lYP/6-311G(d,p)
 -----------------------------------
 1/38=1/1;
 2/12=2,17=6,18=5,40=1/2;
 3/5=4,6=6,7=101,11=9,16=1,25=1,30=1,74=-5/1,2,8,3;
 4//1;
 5/5=2,38=5/2;
 8/6=1,10=2,108=10/1;
 9/41=10,42=1,70=2/14;
 6/7=2,8=2,9=2,10=2/1;
 99/5=1,9=1/99;
 ----
 Name
 ----
 Symbolic Z-matrix:
 Charge =  0 Multiplicity = 1
 1                    -6.8485    1.44772  -1.22567 
 1                    -9.8494   -1.40102   1.28819 
 1                    -10.55675   1.91224  -1.34341 
 1                     2.23645  -2.25327   1.35697 
 1                    -5.63158  -2.22575   1.59321 
 1                    -3.01207  -2.31123   1.44855 
 1                    -1.77545   0.92242  -1.93702 
 1                     0.82727   0.95506  -1.96889 
 1                     4.83318  -2.02415   1.56701 
 1                     5.88583   4.13441   2.22803 
 1                     5.2317    1.76185   1.99424 
 1                     5.74036  -1.97392  -1.58048 
 1                     7.39607  -3.72642  -2.11329 
 1                     9.6367   -3.70087  -1.03841 
 1                     10.19239  -1.90213   0.58315 
 1                     8.52978  -0.16152   1.12957 
 1                     7.78916   1.3924   -1.43007 
 1                     8.46419   3.7552   -1.18215 
 1                     7.51253   5.1438    0.64464 
 7                    -8.81225   1.04668  -0.76161 
 6                    -7.5141    0.80556  -0.65765 
 6                    -7.01328  -0.23761   0.15137 
 7                    -7.86214  -1.0233    0.84506 
 6                    -9.16071  -0.77359   0.73363 
 6                    -9.64694   0.26106  -0.06787 
 8                    -11.40477   1.56949  -1.00576 
 6                    -11.1159   0.5415   -0.19219 
 8                    -11.95715  -0.09691   0.38423 
 6                     2.80802  -1.47419   0.8692 
 16                   -0.41468  -0.99334   0.8231 
 16                   -4.35409   0.4221   -0.51838 
 6                    -5.59534  -0.52279   0.28233 
 6                    -5.02631  -1.53393   1.02504 
 6                    -3.62068  -1.57007   0.94782 
 6                    -3.08207  -0.58362   0.14301 
 6                    -1.6991   -0.3228   -0.16792 
 6                    -1.16442   0.4263   -1.19409 
 6                     0.2467    0.44433  -1.21209 
 6                     0.82577  -0.28843  -0.19688 
 6                     2.22408  -0.5044    0.08578 
 16                    3.44828   0.58039  -0.55774 
 6                     4.72982  -0.29217   0.28679 
 6                     4.21265  -1.35184   0.99049 
 6                     6.30606   3.53908   1.42528 
 6                     5.9343    2.2045    1.29868 
 6                     6.71464  -1.96259  -1.10772 
 6                     7.6502   -2.94863  -1.40191 
 6                     8.90877  -2.93357  -0.80271 
 6                     9.22019  -1.92186   0.10346 
 6                     8.28652  -0.9387    0.41568 
 6                     7.02552  -0.94888  -0.19306 
 7                     6.0675    0.06031   0.12174 
 6                     6.46601   1.42191   0.26711 
 6                     7.37992   1.99315  -0.62724 
 6                     7.75703   3.32393  -0.48251 
 6                     7.2209    4.10542   0.53987 
 
 Stoichiometry    C29H19N3O2S3
 Framework group  C1[X(C29H19N3O2S3)]
 Deg. of freedom   162
 Full point group                 C1      NOp   1
 Largest Abelian subgroup         C1      NOp   1
 Largest concise Abelian subgroup C1      NOp   1
                         Standard orientation:                         
 ---------------------------------------------------------------------
 Center     Atomic      Atomic             Coordinates (Angstroms)
 Number     Number       Type             X           Y           Z
 ---------------------------------------------------------------------
      1          1           0        6.848501    1.447723    1.225671
      2          1           0        9.849403   -1.401018   -1.288192
      3          1           0       10.556753    1.912236    1.343405
      4          1           0       -2.236446   -2.253271   -1.356969
      5          1           0        5.631579   -2.225753   -1.593213
      6          1           0        3.012075   -2.311230   -1.448545
      7          1           0        1.775447    0.922417    1.937024
      8          1           0       -0.827273    0.955055    1.968890
      9          1           0       -4.833176   -2.024149   -1.567007
     10          1           0       -5.885828    4.134410   -2.228034
     11          1           0       -5.231700    1.761848   -1.994243
     12          1           0       -5.740362   -1.973924    1.580479
     13          1           0       -7.396067   -3.726424    2.113294
     14          1           0       -9.636700   -3.700868    1.038414
     15          1           0      -10.192386   -1.902134   -0.583145
     16          1           0       -8.529784   -0.161524   -1.129573
     17          1           0       -7.789158    1.392400    1.430071
     18          1           0       -8.464192    3.755197    1.182147
     19          1           0       -7.512528    5.143804   -0.644640
     20          7           0        8.812246    1.046684    0.761612
     21          6           0        7.514099    0.805559    0.657652
     22          6           0        7.013284   -0.237607   -0.151367
     23          7           0        7.862136   -1.023300   -0.845057
     24          6           0        9.160715   -0.773585   -0.733626
     25          6           0        9.646935    0.261062    0.067867
     26          8           0       11.404771    1.569485    1.005756
     27          6           0       11.115897    0.541499    0.192186
     28          8           0       11.957145   -0.096913   -0.384233
     29          6           0       -2.808023   -1.474185   -0.869201
     30         16           0        0.414683   -0.993340   -0.823102
     31         16           0        4.354085    0.422096    0.518380
     32          6           0        5.595338   -0.522792   -0.282331
     33          6           0        5.026311   -1.533928   -1.025045
     34          6           0        3.620681   -1.570068   -0.947824
     35          6           0        3.082070   -0.583616   -0.143009
     36          6           0        1.699100   -0.322801    0.167924
     37          6           0        1.164416    0.426295    1.194092
     38          6           0       -0.246704    0.444332    1.212090
     39          6           0       -0.825771   -0.288432    0.196883
     40          6           0       -2.224075   -0.504399   -0.085783
     41         16           0       -3.448277    0.580386    0.557742
     42          6           0       -4.729816   -0.292173   -0.286788
     43          6           0       -4.212645   -1.351837   -0.990485
     44          6           0       -6.306062    3.539078   -1.425276
     45          6           0       -5.934303    2.204504   -1.298677
     46          6           0       -6.714639   -1.962591    1.107721
     47          6           0       -7.650204   -2.948627    1.401908
     48          6           0       -8.908773   -2.933568    0.802713
     49          6           0       -9.220188   -1.921855   -0.103455
     50          6           0       -8.286518   -0.938704   -0.415676
     51          6           0       -7.025523   -0.948883    0.193059
     52          7           0       -6.067496    0.060305   -0.121739
     53          6           0       -6.466006    1.421906   -0.267107
     54          6           0       -7.379921    1.993150    0.627243
     55          6           0       -7.757030    3.323933    0.482507
     56          6           0       -7.220904    4.105423   -0.539870
 ---------------------------------------------------------------------
 Rotational constants (GHZ):      0.3071494      0.0213755      0.0205053
 Standard basis: 6-311G(d,p) (5D, 7F)
 There are   841 symmetry adapted cartesian basis functions of A   symmetry.
 There are   804 symmetry adapted basis functions of A   symmetry.
   804 basis functions,  1378 primitive gaussians,   841 cartesian basis functions
   139 alpha electrons      139 beta electrons
       nuclear repulsion energy      3824.9046248901 Hartrees.
 NAtoms=   56 NActive=   56 NUniq=   56 SFac= 1.00D+00 NAtFMM=   60 NAOKFM=F Big=F
 Integral buffers will be    131072 words long.
 Regular integral format.
 Two-electron integral symmetry is turned on.
 One-electron integrals computed using PRISM.
 NBasis=   804 RedAO= T EigKep=  1.79D-04  NBF=   804
 NBsUse=   804 1.00D-06 EigRej= -1.00D+00 NBFU=   804
 ExpMin= 7.71D-02 ExpMax= 9.34D+04 ExpMxC= 3.17D+03 IAcc=2 IRadAn=         4 AccDes= 0.00D+00
 Harris functional with IExCor=  402 and IRadAn=       4 diagonalized for initial guess.
 HarFok:  IExCor=  402 AccDes= 0.00D+00 IRadAn=         4 IDoV= 1 UseB2=F ITyADJ=14
 ICtDFT=  3500011 ScaDFX=  1.000000  1.000000  1.000000  1.000000
 FoFCou: FMM=F IPFlag=           0 FMFlag=      100000 FMFlg1=           0
         NFxFlg=           0 DoJE=T BraDBF=F KetDBF=T FulRan=T
         wScrn=  0.000000 ICntrl=     500 IOpCl=  0 I1Cent=   200000004 NGrid=           0
         NMat0=    1 NMatS0=      1 NMatT0=    0 NMatD0=    1 NMtDS0=    0 NMtDT0=    0
 Petite list used in FoFCou.
 Requested convergence on RMS density matrix=1.00D-08 within 128 cycles.
 Requested convergence on MAX density matrix=1.00D-06.
 Requested convergence on             energy=1.00D-06.
 No special actions if energy rises.
 Integral accuracy reduced to 1.0D-05 until final iterations.
 Initial convergence to 1.0D-05 achieved.  Increase integral accuracy.
 SCF Done:  E(RB3LYP) =  -2626.20548433     A.U. after   16 cycles
            NFock= 16  Conv=0.51D-08     -V/T= 2.0028
 DoSCS=F DFT=T ScalE2(SS,OS)=  1.000000  1.000000
 ExpMin= 7.71D-02 ExpMax= 9.34D+04 ExpMxC= 3.17D+03 IAcc=3 IRadAn=         5 AccDes= 0.00D+00
 HarFok:  IExCor=  205 AccDes= 0.00D+00 IRadAn=         5 IDoV=-2 UseB2=F ITyADJ=14
 ICtDFT= 12500011 ScaDFX=  1.000000  1.000000  1.000000  1.000000
 Range of M.O.s used for correlation:    50   804
 NBasis=   804 NAE=   139 NBE=   139 NFC=    49 NFV=     0
 NROrb=    755 NOA=    90 NOB=    90 NVA=   665 NVB=   665

 **** Warning!!: The largest alpha MO coefficient is  0.16201562D+02


 **** Warning!!: The smallest alpha delta epsilon is  0.91022529D-01

 Would need an additional        156310400000 words for in-memory AO integral storage.
 Orbital symmetries:
       Occupied  (A) (A) (A) (A) (A) (A) (A) (A) (A) (A) (A) (A)
                 (A) (A) (A) (A) (A) (A) (A) (A) (A) (A) (A) (A)
                 (A) (A) (A) (A) (A) (A) (A) (A) (A) (A) (A) (A)
                 (A) (A) (A) (A) (A) (A) (A) (A) (A) (A) (A) (A)
                 (A) (A) (A) (A) (A) (A) (A) (A) (A) (A) (A) (A)
                 (A) (A) (A) (A) (A) (A) (A) (A) (A) (A) (A) (A)
                 (A) (A) (A) (A) (A) (A) (A) (A) (A) (A) (A) (A)
                 (A) (A) (A) (A) (A) (A) (A) (A) (A) (A) (A) (A)
                 (A) (A) (A) (A) (A) (A) (A) (A) (A) (A) (A) (A)
                 (A) (A) (A) (A) (A) (A) (A) (A) (A) (A) (A) (A)
                 (A) (A) (A) (A) (A) (A) (A) (A) (A) (A) (A) (A)
                 (A) (A) (A) (A) (A) (A) (A)
       Virtual   (A) (A) (A) (A) (A) (A) (A) (A) (A) (A) (A) (A)
                 (A) (A) (A) (A) (A) (A) (A) (A) (A) (A) (A) (A)
                 (A) (A) (A) (A) (A) (A) (A) (A) (A) (A) (A) (A)
                 (A) (A) (A) (A) (A) (A) (A) (A) (A) (A) (A) (A)
                 (A) (A) (A) (A) (A) (A) (A) (A) (A) (A) (A) (A)
                 (A) (A) (A) (A) (A) (A) (A) (A) (A) (A) (A) (A)
                 (A) (A) (A) (A) (A) (A) (A) (A) (A) (A) (A) (A)
                 (A) (A) (A) (A) (A) (A) (A) (A) (A) (A) (A) (A)
                 (A) (A) (A) (A) (A) (A) (A) (A) (A) (A) (A) (A)
                 (A) (A) (A) (A) (A) (A) (A) (A) (A) (A) (A) (A)
                 (A) (A) (A) (A) (A) (A) (A) (A) (A) (A) (A) (A)
                 (A) (A) (A) (A) (A) (A) (A) (A) (A) (A) (A) (A)
                 (A) (A) (A) (A) (A) (A) (A) (A) (A) (A) (A) (A)
                 (A) (A) (A) (A) (A) (A) (A) (A) (A) (A) (A) (A)
                 (A) (A) (A) (A) (A) (A) (A) (A) (A) (A) (A) (A)
                 (A) (A) (A) (A) (A) (A) (A) (A) (A) (A) (A) (A)
                 (A) (A) (A) (A) (A) (A) (A) (A) (A) (A) (A) (A)
                 (A) (A) (A) (A) (A) (A) (A) (A) (A) (A) (A) (A)
                 (A) (A) (A) (A) (A) (A) (A) (A) (A) (A) (A) (A)
                 (A) (A) (A) (A) (A) (A) (A) (A) (A) (A) (A) (A)
                 (A) (A) (A) (A) (A) (A) (A) (A) (A) (A) (A) (A)
                 (A) (A) (A) (A) (A) (A) (A) (A) (A) (A) (A) (A)
                 (A) (A) (A) (A) (A) (A) (A) (A) (A) (A) (A) (A)
                 (A) (A) (A) (A) (A) (A) (A) (A) (A) (A) (A) (A)
                 (A) (A) (A) (A) (A) (A) (A) (A) (A) (A) (A) (A)
                 (A) (A) (A) (A) (A) (A) (A) (A) (A) (A) (A) (A)
                 (A) (A) (A) (A) (A) (A) (A) (A) (A) (A) (A) (A)
                 (A) (A) (A) (A) (A) (A) (A) (A) (A) (A) (A) (A)
                 (A) (A) (A) (A) (A) (A) (A) (A) (A) (A) (A) (A)
                 (A) (A) (A) (A) (A) (A) (A) (A) (A) (A) (A) (A)
                 (A) (A) (A) (A) (A) (A) (A) (A) (A) (A) (A) (A)
                 (A) (A) (A) (A) (A) (A) (A) (A) (A) (A) (A) (A)
                 (A) (A) (A) (A) (A) (A) (A) (A) (A) (A) (A) (A)
                 (A) (A) (A) (A) (A) (A) (A) (A) (A) (A) (A) (A)
                 (A) (A) (A) (A) (A) (A) (A) (A) (A) (A) (A) (A)
                 (A) (A) (A) (A) (A) (A) (A) (A) (A) (A) (A) (A)
                 (A) (A) (A) (A) (A) (A) (A) (A) (A) (A) (A) (A)
                 (A) (A) (A) (A) (A) (A) (A) (A) (A) (A) (A) (A)
                 (A) (A) (A) (A) (A) (A) (A) (A) (A) (A) (A) (A)
                 (A) (A) (A) (A) (A) (A) (A) (A) (A) (A) (A) (A)
                 (A) (A) (A) (A) (A) (A) (A) (A) (A) (A) (A) (A)
                 (A) (A) (A) (A) (A) (A) (A) (A) (A) (A) (A) (A)
                 (A) (A) (A) (A) (A) (A) (A) (A) (A) (A) (A) (A)
                 (A) (A) (A) (A) (A) (A) (A) (A) (A) (A) (A) (A)
                 (A) (A) (A) (A) (A) (A) (A) (A) (A) (A) (A) (A)
                 (A) (A) (A) (A) (A) (A) (A) (A) (A) (A) (A) (A)
                 (A) (A) (A) (A) (A) (A) (A) (A) (A) (A) (A) (A)
                 (A) (A) (A) (A) (A) (A) (A) (A) (A) (A) (A) (A)
                 (A) (A) (A) (A) (A) (A) (A) (A) (A) (A) (A) (A)
                 (A) (A) (A) (A) (A) (A) (A) (A) (A) (A) (A) (A)
                 (A) (A) (A) (A) (A) (A) (A) (A) (A) (A) (A) (A)
                 (A) (A) (A) (A) (A) (A) (A) (A) (A) (A) (A) (A)
                 (A) (A) (A) (A) (A) (A) (A) (A) (A) (A) (A) (A)
                 (A) (A) (A) (A) (A) (A) (A) (A) (A) (A) (A) (A)
                 (A) (A) (A) (A) (A) (A) (A) (A) (A) (A) (A) (A)
                 (A) (A) (A) (A) (A)
    40 initial guesses have been made.
 Convergence on wavefunction:    0.001000000000000
 Iteration     1 Dimension    40 NMult     0 NNew     40
 CISAX will form    40 AO SS matrices at one time.
 New state      2 was old state      3
 New state      3 was old state      2
 New state      5 was old state     12
 New state      6 was old state      5
 New state      7 was old state      9
 New state      8 was old state      7
 New state      9 was old state     11
 New state     10 was old state     13
 Iteration     2 Dimension    60 NMult    40 NNew     20
 New state      8 was old state      9
 New state      9 was old state      8
 Iteration     3 Dimension    80 NMult    60 NNew     20
 Iteration     4 Dimension   100 NMult    80 NNew     20
 Iteration     5 Dimension   120 NMult   100 NNew     20
 Iteration     6 Dimension   130 NMult   120 NNew     10
 Iteration     7 Dimension   134 NMult   130 NNew      4
 Iteration     8 Dimension   136 NMult   134 NNew      2
 ***********************************************************************
 Excited states from <AA,BB:AA,BB> singles matrix:
 ***********************************************************************
 
 Ground to excited state transition densities written to RWF  633
 Ground to excited state transition electric dipole moments (Au):
       state          X           Y           Z        Dip. S.      Osc.
         1        -3.7706      0.0024      0.0029     14.2171      0.7730
         2        -2.3339      0.0692     -0.0451      5.4541      0.3877
         3         2.5441      0.1294     -0.0246      6.4897      0.4729
         4        -0.3596      0.2085      0.0006      0.1728      0.0139
         5         0.0079      0.0698     -0.0872      0.0125      0.0011
         6         0.8414      0.0254      0.0424      0.7104      0.0629
         7         0.5204      0.1707     -0.0254      0.3006      0.0283
         8        -0.1709      0.2953      0.1610      0.1423      0.0136
         9         0.3416      1.0908     -0.2499      1.3690      0.1307
        10        -0.2928      0.2352     -0.2208      0.1898      0.0183
 Ground to excited state transition velocity dipole moments (Au):
       state          X           Y           Z        Dip. S.      Osc.
         1         0.3033      0.0002     -0.0005      0.0920      0.7519
         2         0.2493     -0.0080      0.0058      0.0622      0.3891
         3        -0.2740     -0.0148      0.0031      0.0753      0.4592
         4         0.0469     -0.0265      0.0013      0.0029      0.0161
         5        -0.0005     -0.0160      0.0196      0.0006      0.0033
         6        -0.1137     -0.0030     -0.0066      0.0130      0.0653
         7        -0.0713     -0.0254      0.0030      0.0057      0.0271
         8         0.0224     -0.0450     -0.0295      0.0034      0.0158
         9        -0.0480     -0.1566      0.0382      0.0283      0.1316
        10         0.0415     -0.0350      0.0387      0.0044      0.0204
 Ground to excited state transition magnetic dipole moments (Au):
       state          X           Y           Z
         1        -0.0635     -0.0075      0.5078
         2        -0.0992     -0.1373      0.6400
         3        -0.0593      0.0056     -0.3150
         4        -0.1846      0.3414     -0.1941
         5        -0.1953     -0.2232     -0.1771
         6        -0.0428      0.2288     -0.4051
         7        -0.1035     -0.2486      0.2384
         8        -0.2670     -0.7583     -0.1358
         9         0.0938      0.7802      1.7965
        10        -0.0185      0.2494      1.2532
 Ground to excited state transition velocity quadrupole moments (Au):
       state          XX          YY          ZZ          XY          XZ          YZ
         1         1.2913     -0.2227     -0.0293      0.0194     -0.0260      0.0576
         2        -1.0333     -0.2623      0.0018      0.0236      0.0148      0.1047
         3        -4.5319      0.0496      0.0521     -0.0874      0.0179      0.0253
         4        -3.4096     -0.2736      0.0253     -0.1434     -0.1215      0.1147
         5         0.0259      0.0059     -0.0109     -0.2615      0.3199      0.0015
         6        -0.0841     -0.0021     -0.0074     -0.0544     -0.0913     -0.0220
         7        -4.4694     -0.1860      0.0383      0.1621      0.1145      0.0906
         8         0.3007     -0.3034      0.0104      0.8386      0.4611      0.0270
         9         1.2942     -0.2438     -0.0061      2.2824     -0.5422     -0.0473
        10        -0.8686     -0.3111     -0.0065      0.6592     -0.2467      0.1113
 <0|del|b> * <b|rxdel|0> + <0|del|b> * <b|delr+rdel|0>
 Rotatory Strengths (R) in cgs (10**-40 erg-esu-cm/Gauss)
       state          XX          YY          ZZ    R(velocity)    E-M Angle
         1        -1.0924     -8.7955   -159.2721    -56.3867       97.22
         2        16.7449     16.3755   -165.3191    -44.0662       96.93
         3        -3.3927     27.8185     73.8365     32.7541       80.06
         4       -37.2992     -9.8174    -58.3135    -35.1434      140.19
         5         0.2337      4.7634     -3.9343      0.3543       88.72
         6         5.4946     25.7833      5.2006     12.1595       82.61
         7        26.0377      2.8694     43.1152     24.0074       58.10
         8        84.3200     57.8104     16.7267     52.9524       47.49
         9      -126.0902    -51.3521   -108.6924    -95.3782      100.12
        10       138.3197     65.5474    -13.3810     63.4954       62.76
 1/2[<0|r|b>*<b|rxdel|0> + (<0|rxdel|b>*<b|r|0>)*]
 Rotatory Strengths (R) in cgs (10**-40 erg-esu-cm/Gauss)
       state          XX          YY          ZZ     R(length)
         1      -169.3376      0.0125     -1.0539    -56.7930
         2      -163.7365      6.7244     20.3932    -45.5396
         3       106.6161     -0.5139     -5.4793     33.5410
         4       -46.9485    -50.3342      0.0773    -32.4018
         5         1.0894     11.0185    -10.9201      0.3959
         6        25.4698     -4.1061     12.1504     11.1714
         7        38.0695     30.0081      4.2849     24.1208
         8       -32.2742    158.3248     15.4574     47.1693
         9       -22.6474   -601.7965    317.5410   -102.3010
        10        -3.8219    -41.4757    195.6644     50.1223
  1/2[<0|del|b>*<b|r|0> + (<0|r|b>*<b|del|0>)*] (Au)
       state          X           Y           Z        Dip. S.   Osc.(frdel)
         1        -1.1436      0.0000      0.0000      1.1436      0.7624
         2        -0.5818     -0.0006     -0.0003      0.5826      0.3884
         3        -0.6970     -0.0019     -0.0001      0.6990      0.4660
         4        -0.0169     -0.0055      0.0000      0.0224      0.0149
         5         0.0000     -0.0011     -0.0017      0.0028      0.0019
         6        -0.0957     -0.0001     -0.0003      0.0961      0.0640
         7        -0.0371     -0.0043     -0.0001      0.0415      0.0277
         8        -0.0038     -0.0133     -0.0048      0.0219      0.0146
         9        -0.0164     -0.1708     -0.0096      0.1968      0.1312
        10        -0.0121     -0.0082     -0.0085      0.0289      0.0193

 Excitation energies and oscillator strengths:
 
 Excited State   1:      Singlet-A      2.2192 eV  558.69 nm  f=0.7730  <S**2>=0.000
     139 ->140         0.70349
 This state for optimization and/or second-order correction.
 Total Energy, E(TD-HF/TD-KS) =  -2626.12392981    
 Copying the excited state density for this state as the 1-particle RhoCI density.
 
 Excited State   2:      Singlet-A      2.9017 eV  427.28 nm  f=0.3877  <S**2>=0.000
     138 ->140        -0.12414
     139 ->141         0.68478
 
 Excited State   3:      Singlet-A      2.9744 eV  416.84 nm  f=0.4729  <S**2>=0.000
     138 ->140         0.67826
     139 ->141         0.12766
     139 ->142        -0.13046
 
 Excited State   4:      Singlet-A      3.2762 eV  378.43 nm  f=0.0139  <S**2>=0.000
     138 ->140         0.13818
     138 ->141         0.11530
     139 ->142         0.66679
 
 Excited State   5:      Singlet-A      3.5401 eV  350.23 nm  f=0.0011  <S**2>=0.000
     134 ->140         0.66603
     134 ->141        -0.19150
 
 Excited State   6:      Singlet-A      3.6116 eV  343.30 nm  f=0.0629  <S**2>=0.000
     138 ->141         0.67406
     139 ->143        -0.10152
 
 Excited State   7:      Singlet-A      3.8485 eV  322.17 nm  f=0.0283  <S**2>=0.000
     137 ->140         0.55554
     138 ->142         0.36750
     139 ->143         0.15207
 
 Excited State   8:      Singlet-A      3.8883 eV  318.86 nm  f=0.0136  <S**2>=0.000
     136 ->140        -0.11361
     138 ->145         0.11181
     139 ->143         0.27380
     139 ->144         0.19268
     139 ->145         0.57273
 
 Excited State   9:      Singlet-A      3.8981 eV  318.07 nm  f=0.1307  <S**2>=0.000
     136 ->140         0.11248
     139 ->143        -0.12676
     139 ->144         0.65601
     139 ->145        -0.12747
 
 Excited State  10:      Singlet-A      3.9367 eV  314.95 nm  f=0.0183  <S**2>=0.000
     139 ->143         0.56431
     139 ->145        -0.34213
 SavETr:  write IOETrn=   770 NScale= 10 NData=  16 NLR=1 NState=   10 LETran=     190.

 **********************************************************************

            Population analysis using the SCF density.

 **********************************************************************

 Orbital symmetries:
       Occupied  (A) (A) (A) (A) (A) (A) (A) (A) (A) (A) (A) (A)
                 (A) (A) (A) (A) (A) (A) (A) (A) (A) (A) (A) (A)
                 (A) (A) (A) (A) (A) (A) (A) (A) (A) (A) (A) (A)
                 (A) (A) (A) (A) (A) (A) (A) (A) (A) (A) (A) (A)
                 (A) (A) (A) (A) (A) (A) (A) (A) (A) (A) (A) (A)
                 (A) (A) (A) (A) (A) (A) (A) (A) (A) (A) (A) (A)
                 (A) (A) (A) (A) (A) (A) (A) (A) (A) (A) (A) (A)
                 (A) (A) (A) (A) (A) (A) (A) (A) (A) (A) (A) (A)
                 (A) (A) (A) (A) (A) (A) (A) (A) (A) (A) (A) (A)
                 (A) (A) (A) (A) (A) (A) (A) (A) (A) (A) (A) (A)
                 (A) (A) (A) (A) (A) (A) (A) (A) (A) (A) (A) (A)
                 (A) (A) (A) (A) (A) (A) (A)
       Virtual   (A) (A) (A) (A) (A) (A) (A) (A) (A) (A) (A) (A)
                 (A) (A) (A) (A) (A) (A) (A) (A) (A) (A) (A) (A)
                 (A) (A) (A) (A) (A) (A) (A) (A) (A) (A) (A) (A)
                 (A) (A) (A) (A) (A) (A) (A) (A) (A) (A) (A) (A)
                 (A) (A) (A) (A) (A) (A) (A) (A) (A) (A) (A) (A)
                 (A) (A) (A) (A) (A) (A) (A) (A) (A) (A) (A) (A)
                 (A) (A) (A) (A) (A) (A) (A) (A) (A) (A) (A) (A)
                 (A) (A) (A) (A) (A) (A) (A) (A) (A) (A) (A) (A)
                 (A) (A) (A) (A) (A) (A) (A) (A) (A) (A) (A) (A)
                 (A) (A) (A) (A) (A) (A) (A) (A) (A) (A) (A) (A)
                 (A) (A) (A) (A) (A) (A) (A) (A) (A) (A) (A) (A)
                 (A) (A) (A) (A) (A) (A) (A) (A) (A) (A) (A) (A)
                 (A) (A) (A) (A) (A) (A) (A) (A) (A) (A) (A) (A)
                 (A) (A) (A) (A) (A) (A) (A) (A) (A) (A) (A) (A)
                 (A) (A) (A) (A) (A) (A) (A) (A) (A) (A) (A) (A)
                 (A) (A) (A) (A) (A) (A) (A) (A) (A) (A) (A) (A)
                 (A) (A) (A) (A) (A) (A) (A) (A) (A) (A) (A) (A)
                 (A) (A) (A) (A) (A) (A) (A) (A) (A) (A) (A) (A)
                 (A) (A) (A) (A) (A) (A) (A) (A) (A) (A) (A) (A)
                 (A) (A) (A) (A) (A) (A) (A) (A) (A) (A) (A) (A)
                 (A) (A) (A) (A) (A) (A) (A) (A) (A) (A) (A) (A)
                 (A) (A) (A) (A) (A) (A) (A) (A) (A) (A) (A) (A)
                 (A) (A) (A) (A) (A) (A) (A) (A) (A) (A) (A) (A)
                 (A) (A) (A) (A) (A) (A) (A) (A) (A) (A) (A) (A)
                 (A) (A) (A) (A) (A) (A) (A) (A) (A) (A) (A) (A)
                 (A) (A) (A) (A) (A) (A) (A) (A) (A) (A) (A) (A)
                 (A) (A) (A) (A) (A) (A) (A) (A) (A) (A) (A) (A)
                 (A) (A) (A) (A) (A) (A) (A) (A) (A) (A) (A) (A)
                 (A) (A) (A) (A) (A) (A) (A) (A) (A) (A) (A) (A)
                 (A) (A) (A) (A) (A) (A) (A) (A) (A) (A) (A) (A)
                 (A) (A) (A) (A) (A) (A) (A) (A) (A) (A) (A) (A)
                 (A) (A) (A) (A) (A) (A) (A) (A) (A) (A) (A) (A)
                 (A) (A) (A) (A) (A) (A) (A) (A) (A) (A) (A) (A)
                 (A) (A) (A) (A) (A) (A) (A) (A) (A) (A) (A) (A)
                 (A) (A) (A) (A) (A) (A) (A) (A) (A) (A) (A) (A)
                 (A) (A) (A) (A) (A) (A) (A) (A) (A) (A) (A) (A)
                 (A) (A) (A) (A) (A) (A) (A) (A) (A) (A) (A) (A)
                 (A) (A) (A) (A) (A) (A) (A) (A) (A) (A) (A) (A)
                 (A) (A) (A) (A) (A) (A) (A) (A) (A) (A) (A) (A)
                 (A) (A) (A) (A) (A) (A) (A) (A) (A) (A) (A) (A)
                 (A) (A) (A) (A) (A) (A) (A) (A) (A) (A) (A) (A)
                 (A) (A) (A) (A) (A) (A) (A) (A) (A) (A) (A) (A)
                 (A) (A) (A) (A) (A) (A) (A) (A) (A) (A) (A) (A)
                 (A) (A) (A) (A) (A) (A) (A) (A) (A) (A) (A) (A)
                 (A) (A) (A) (A) (A) (A) (A) (A) (A) (A) (A) (A)
                 (A) (A) (A) (A) (A) (A) (A) (A) (A) (A) (A) (A)
                 (A) (A) (A) (A) (A) (A) (A) (A) (A) (A) (A) (A)
                 (A) (A) (A) (A) (A) (A) (A) (A) (A) (A) (A) (A)
                 (A) (A) (A) (A) (A) (A) (A) (A) (A) (A) (A) (A)
                 (A) (A) (A) (A) (A) (A) (A) (A) (A) (A) (A) (A)
                 (A) (A) (A) (A) (A) (A) (A) (A) (A) (A) (A) (A)
                 (A) (A) (A) (A) (A) (A) (A) (A) (A) (A) (A) (A)
                 (A) (A) (A) (A) (A) (A) (A) (A) (A) (A) (A) (A)
                 (A) (A) (A) (A) (A) (A) (A) (A) (A) (A) (A) (A)
                 (A) (A) (A) (A) (A) (A) (A) (A) (A) (A) (A) (A)
                 (A) (A) (A) (A) (A)
 The electronic state is 1-A.
 Alpha  occ. eigenvalues --  -88.89764 -88.89220 -88.88578 -19.15744 -19.10393
 Alpha  occ. eigenvalues --  -14.36552 -14.35910 -14.34422 -10.30447 -10.25694
 Alpha  occ. eigenvalues --  -10.25110 -10.24256 -10.24012 -10.23920 -10.23783
 Alpha  occ. eigenvalues --  -10.23252 -10.23138 -10.22940 -10.22878 -10.22714
 Alpha  occ. eigenvalues --  -10.22502 -10.19859 -10.19727 -10.19706 -10.19343
 Alpha  occ. eigenvalues --  -10.19216 -10.18709 -10.18539 -10.18520 -10.18509
 Alpha  occ. eigenvalues --  -10.18500 -10.18412 -10.18386 -10.18332 -10.18331
 Alpha  occ. eigenvalues --  -10.18109 -10.18028  -7.98413  -7.97860  -7.97218
 Alpha  occ. eigenvalues --   -5.94719  -5.94346  -5.94173  -5.93974  -5.93796
 Alpha  occ. eigenvalues --   -5.93524  -5.93412  -5.93165  -5.92762  -1.10507
 Alpha  occ. eigenvalues --   -1.02501  -1.01201  -0.98939  -0.94031  -0.91888
 Alpha  occ. eigenvalues --   -0.90308  -0.88554  -0.87156  -0.85558  -0.82574
 Alpha  occ. eigenvalues --   -0.79569  -0.77249  -0.77108  -0.76547  -0.75962
 Alpha  occ. eigenvalues --   -0.75919  -0.75501  -0.74905  -0.73551  -0.71047
 Alpha  occ. eigenvalues --   -0.69061  -0.68630  -0.64311  -0.63861  -0.62597
 Alpha  occ. eigenvalues --   -0.61810  -0.61640  -0.60989  -0.59631  -0.57922
 Alpha  occ. eigenvalues --   -0.57864  -0.56980  -0.55800  -0.55246  -0.54494
 Alpha  occ. eigenvalues --   -0.54187  -0.54074  -0.53033  -0.51155  -0.49523
 Alpha  occ. eigenvalues --   -0.49152  -0.48157  -0.47585  -0.47264  -0.46780
 Alpha  occ. eigenvalues --   -0.46304  -0.45726  -0.45212  -0.44682  -0.44394
 Alpha  occ. eigenvalues --   -0.44021  -0.43775  -0.43549  -0.43319  -0.42649
 Alpha  occ. eigenvalues --   -0.42527  -0.42323  -0.41692  -0.41055  -0.40188
 Alpha  occ. eigenvalues --   -0.39665  -0.39408  -0.38609  -0.38493  -0.38366
 Alpha  occ. eigenvalues --   -0.37929  -0.37380  -0.37040  -0.36400  -0.36003
 Alpha  occ. eigenvalues --   -0.35826  -0.35815  -0.35200  -0.33859  -0.32971
 Alpha  occ. eigenvalues --   -0.32258  -0.31423  -0.29481  -0.29257  -0.28018
 Alpha  occ. eigenvalues --   -0.27719  -0.27501  -0.27286  -0.26990  -0.26626
 Alpha  occ. eigenvalues --   -0.26298  -0.25731  -0.22277  -0.19493
 Alpha virt. eigenvalues --   -0.10391  -0.07591  -0.06193  -0.03556  -0.03158
 Alpha virt. eigenvalues --   -0.02890  -0.01304  -0.01071  -0.00307  -0.00027
 Alpha virt. eigenvalues --    0.00331   0.01332   0.03375   0.03535   0.03652
 Alpha virt. eigenvalues --    0.04092   0.04545   0.04943   0.05740   0.06163
 Alpha virt. eigenvalues --    0.06494   0.06816   0.06843   0.07140   0.07218
 Alpha virt. eigenvalues --    0.07910   0.08230   0.09217   0.09331   0.09784
 Alpha virt. eigenvalues --    0.10245   0.10864   0.11107   0.11450   0.12429
 Alpha virt. eigenvalues --    0.12668   0.12723   0.13600   0.13866   0.13999
 Alpha virt. eigenvalues --    0.14174   0.14791   0.15671   0.16116   0.17476
 Alpha virt. eigenvalues --    0.18043   0.18771   0.19829   0.20544   0.21381
 Alpha virt. eigenvalues --    0.21825   0.21917   0.22511   0.22728   0.23404
 Alpha virt. eigenvalues --    0.23569   0.23815   0.24225   0.24976   0.25841
 Alpha virt. eigenvalues --    0.26271   0.26452   0.26616   0.27345   0.27474
 Alpha virt. eigenvalues --    0.28129   0.28536   0.29623   0.30085   0.30208
 Alpha virt. eigenvalues --    0.30823   0.31232   0.31716   0.31917   0.33014
 Alpha virt. eigenvalues --    0.33305   0.34074   0.34443   0.34740   0.35438
 Alpha virt. eigenvalues --    0.35632   0.35858   0.36292   0.36683   0.36912
 Alpha virt. eigenvalues --    0.37315   0.37597   0.37745   0.37931   0.38227
 Alpha virt. eigenvalues --    0.38404   0.38580   0.38772   0.39043   0.39549
 Alpha virt. eigenvalues --    0.39635   0.40233   0.40293   0.40627   0.40968
 Alpha virt. eigenvalues --    0.41294   0.41539   0.41650   0.42001   0.42220
 Alpha virt. eigenvalues --    0.42405   0.42737   0.42872   0.42988   0.43386
 Alpha virt. eigenvalues --    0.43490   0.44204   0.44691   0.44843   0.45292
 Alpha virt. eigenvalues --    0.46093   0.46466   0.46842   0.47552   0.47940
 Alpha virt. eigenvalues --    0.48118   0.48720   0.48900   0.49567   0.50197
 Alpha virt. eigenvalues --    0.50714   0.50859   0.51074   0.51647   0.52357
 Alpha virt. eigenvalues --    0.53475   0.53925   0.54099   0.54360   0.54379
 Alpha virt. eigenvalues --    0.55085   0.55328   0.55435   0.55576   0.55954
 Alpha virt. eigenvalues --    0.56909   0.58320   0.58924   0.59171   0.59294
 Alpha virt. eigenvalues --    0.59509   0.59552   0.59950   0.60124   0.60261
 Alpha virt. eigenvalues --    0.60589   0.60927   0.61083   0.61241   0.61847
 Alpha virt. eigenvalues --    0.61989   0.62443   0.62644   0.63122   0.63572
 Alpha virt. eigenvalues --    0.64103   0.64748   0.64817   0.65129   0.65252
 Alpha virt. eigenvalues --    0.65464   0.65936   0.66134   0.67426   0.67544
 Alpha virt. eigenvalues --    0.67741   0.68900   0.69159   0.69463   0.70210
 Alpha virt. eigenvalues --    0.70791   0.71917   0.72238   0.72427   0.72694
 Alpha virt. eigenvalues --    0.73445   0.73774   0.73837   0.74233   0.75189
 Alpha virt. eigenvalues --    0.75353   0.75620   0.75960   0.76373   0.76677
 Alpha virt. eigenvalues --    0.77280   0.77680   0.78121   0.78273   0.78689
 Alpha virt. eigenvalues --    0.78955   0.79178   0.79955   0.80109   0.80629
 Alpha virt. eigenvalues --    0.81386   0.82243   0.82608   0.82822   0.83142
 Alpha virt. eigenvalues --    0.83555   0.83676   0.84176   0.85065   0.85768
 Alpha virt. eigenvalues --    0.86047   0.87126   0.87280   0.87576   0.87934
 Alpha virt. eigenvalues --    0.88804   0.88876   0.89311   0.90285   0.90614
 Alpha virt. eigenvalues --    0.90768   0.91216   0.91995   0.92447   0.92971
 Alpha virt. eigenvalues --    0.93314   0.93990   0.94936   0.95454   0.96029
 Alpha virt. eigenvalues --    0.96463   0.97060   0.97589   0.98537   0.98800
 Alpha virt. eigenvalues --    0.99345   0.99894   1.00439   1.00806   1.02035
 Alpha virt. eigenvalues --    1.02350   1.02524   1.02789   1.03008   1.03420
 Alpha virt. eigenvalues --    1.04205   1.04959   1.05440   1.05578   1.05736
 Alpha virt. eigenvalues --    1.05888   1.06218   1.06801   1.07633   1.08108
 Alpha virt. eigenvalues --    1.09032   1.10371   1.11188   1.11566   1.11725
 Alpha virt. eigenvalues --    1.12202   1.13307   1.13806   1.14070   1.14764
 Alpha virt. eigenvalues --    1.15861   1.16929   1.18692   1.19727   1.20519
 Alpha virt. eigenvalues --    1.21191   1.22633   1.22990   1.24446   1.24946
 Alpha virt. eigenvalues --    1.26025   1.26859   1.28265   1.29217   1.30292
 Alpha virt. eigenvalues --    1.31586   1.33026   1.34302   1.35740   1.36656
 Alpha virt. eigenvalues --    1.37375   1.37962   1.38577   1.39660   1.40492
 Alpha virt. eigenvalues --    1.40884   1.41414   1.42047   1.42942   1.43471
 Alpha virt. eigenvalues --    1.45031   1.45161   1.45754   1.45965   1.46993
 Alpha virt. eigenvalues --    1.47673   1.48336   1.48960   1.49582   1.50012
 Alpha virt. eigenvalues --    1.50487   1.50844   1.50930   1.51319   1.51637
 Alpha virt. eigenvalues --    1.52498   1.53377   1.53683   1.54340   1.54679
 Alpha virt. eigenvalues --    1.55043   1.55502   1.56111   1.56436   1.57172
 Alpha virt. eigenvalues --    1.57400   1.57879   1.58389   1.58706   1.59332
 Alpha virt. eigenvalues --    1.59610   1.60096   1.60365   1.60824   1.61515
 Alpha virt. eigenvalues --    1.62020   1.62337   1.62473   1.63471   1.63709
 Alpha virt. eigenvalues --    1.65111   1.65807   1.66094   1.66903   1.67100
 Alpha virt. eigenvalues --    1.68053   1.68185   1.69102   1.70114   1.70338
 Alpha virt. eigenvalues --    1.71042   1.71221   1.71742   1.72545   1.72774
 Alpha virt. eigenvalues --    1.72990   1.73299   1.74557   1.75300   1.75843
 Alpha virt. eigenvalues --    1.76661   1.77087   1.77375   1.77966   1.78592
 Alpha virt. eigenvalues --    1.78723   1.78924   1.79317   1.79655   1.80465
 Alpha virt. eigenvalues --    1.81092   1.81859   1.83090   1.84006   1.84761
 Alpha virt. eigenvalues --    1.86602   1.87045   1.88211   1.88511   1.88582
 Alpha virt. eigenvalues --    1.88671   1.89683   1.90213   1.90521   1.90634
 Alpha virt. eigenvalues --    1.91086   1.91522   1.91717   1.92057   1.92803
 Alpha virt. eigenvalues --    1.93027   1.93630   1.94359   1.95273   1.95551
 Alpha virt. eigenvalues --    1.95713   1.96063   1.96545   1.96723   1.97394
 Alpha virt. eigenvalues --    1.98282   1.99077   1.99459   1.99992   2.00584
 Alpha virt. eigenvalues --    2.01240   2.02978   2.03935   2.04800   2.05027
 Alpha virt. eigenvalues --    2.06791   2.07063   2.07226   2.07648   2.08411
 Alpha virt. eigenvalues --    2.09359   2.09546   2.11922   2.12289   2.13688
 Alpha virt. eigenvalues --    2.13993   2.14889   2.15664   2.16317   2.17715
 Alpha virt. eigenvalues --    2.19064   2.21295   2.21459   2.23449   2.25364
 Alpha virt. eigenvalues --    2.26028   2.26350   2.26643   2.27759   2.28203
 Alpha virt. eigenvalues --    2.28313   2.28567   2.29179   2.30085   2.31197
 Alpha virt. eigenvalues --    2.31448   2.31642   2.32622   2.33738   2.34355
 Alpha virt. eigenvalues --    2.36678   2.37107   2.37696   2.40337   2.41711
 Alpha virt. eigenvalues --    2.42790   2.43380   2.45221   2.46504   2.46709
 Alpha virt. eigenvalues --    2.48869   2.49962   2.50758   2.52195   2.52495
 Alpha virt. eigenvalues --    2.53330   2.54589   2.55811   2.56539   2.57969
 Alpha virt. eigenvalues --    2.58402   2.58919   2.59036   2.59225   2.59533
 Alpha virt. eigenvalues --    2.59826   2.60384   2.60753   2.61202   2.61420
 Alpha virt. eigenvalues --    2.61545   2.62155   2.62389   2.62851   2.63078
 Alpha virt. eigenvalues --    2.63522   2.63640   2.64044   2.64316   2.64767
 Alpha virt. eigenvalues --    2.65123   2.65334   2.65652   2.65923   2.66621
 Alpha virt. eigenvalues --    2.67563   2.67889   2.68704   2.69497   2.71539
 Alpha virt. eigenvalues --    2.71922   2.72514   2.73403   2.74385   2.74667
 Alpha virt. eigenvalues --    2.75970   2.77010   2.77619   2.78246   2.78638
 Alpha virt. eigenvalues --    2.79679   2.80226   2.81355   2.82621   2.82774
 Alpha virt. eigenvalues --    2.83682   2.84346   2.84769   2.85024   2.85811
 Alpha virt. eigenvalues --    2.86898   2.87445   2.89195   2.89413   2.89717
 Alpha virt. eigenvalues --    2.90515   2.90900   2.91209   2.91763   2.92276
 Alpha virt. eigenvalues --    2.93030   2.93985   2.95247   2.95711   2.98600
 Alpha virt. eigenvalues --    2.99331   3.03547   3.05003   3.06390   3.06414
 Alpha virt. eigenvalues --    3.06582   3.07579   3.09187   3.11098   3.11165
 Alpha virt. eigenvalues --    3.13266   3.14207   3.15553   3.16938   3.17785
 Alpha virt. eigenvalues --    3.18562   3.19535   3.21746   3.24011   3.25313
 Alpha virt. eigenvalues --    3.27144   3.27792   3.30668   3.32097   3.32711
 Alpha virt. eigenvalues --    3.33865   3.34374   3.34600   3.35135   3.35388
 Alpha virt. eigenvalues --    3.36137   3.36939   3.38171   3.40199   3.41323
 Alpha virt. eigenvalues --    3.43579   3.45273   3.46647   3.47124   3.47531
 Alpha virt. eigenvalues --    3.48428   3.53127   3.53868   3.55318   3.57164
 Alpha virt. eigenvalues --    3.62861   3.62944   3.63572   3.67346   3.72072
 Alpha virt. eigenvalues --    3.74862   3.76954   3.79858   3.81571   3.84293
 Alpha virt. eigenvalues --    3.85049   3.86936   3.88033   3.90214   3.91231
 Alpha virt. eigenvalues --    3.96061   3.96174   3.98395   4.02937   4.06339
 Alpha virt. eigenvalues --    4.09249   4.09928   4.11021   4.11539   4.12162
 Alpha virt. eigenvalues --    4.12800   4.14561   4.19255   4.21853   4.24931
 Alpha virt. eigenvalues --    4.35800   4.47671   4.50518   4.63857   4.79111
 Alpha virt. eigenvalues --    4.82871   4.83163   4.90536   4.91978   5.01197
 Alpha virt. eigenvalues --    5.04548   5.06569   5.31983   5.36389   5.56339
 Alpha virt. eigenvalues --    5.79754   7.76926   7.78235   7.80385  17.17862
 Alpha virt. eigenvalues --   17.19550  17.22935  17.43815  17.44344  17.46857
 Alpha virt. eigenvalues --   17.47639  17.50358  17.50606  23.42940  23.49048
 Alpha virt. eigenvalues --   23.53260  23.55239  23.65092  23.71902  23.74948
 Alpha virt. eigenvalues --   23.78469  23.79543  23.83081  23.86087  23.91636
 Alpha virt. eigenvalues --   23.92267  23.93062  23.93109  23.97802  24.01880
 Alpha virt. eigenvalues --   24.03935  24.05234  24.05765  24.05949  24.07079
 Alpha virt. eigenvalues --   24.09303  24.09817  24.12267  24.12992  24.13843
 Alpha virt. eigenvalues --   24.18430  24.18577  35.54527  35.61209  35.66786
 Alpha virt. eigenvalues --   49.85368  50.01274 188.88518 188.89773 188.92232
          Condensed to atoms (all electrons):
 Mulliken charges:
               1
     1  H    0.120592
     2  H    0.135975
     3  H    0.253206
     4  H    0.107783
     5  H    0.115251
     6  H    0.113721
     7  H    0.109672
     8  H    0.111078
     9  H    0.108271
    10  H    0.098792
    11  H    0.115205
    12  H    0.115090
    13  H    0.097917
    14  H    0.095639
    15  H    0.098140
    16  H    0.113272
    17  H    0.111917
    18  H    0.098664
    19  H    0.096319
    20  N   -0.354785
    21  C    0.101921
    22  C    0.129538
    23  N   -0.298186
    24  C    0.136312
    25  C   -0.070395
    26  O   -0.299286
    27  C    0.416491
    28  O   -0.317296
    29  C   -0.057889
    30  S    0.320005
    31  S    0.324819
    32  C   -0.319636
    33  C    0.016963
    34  C   -0.047913
    35  C   -0.214518
    36  C   -0.219041
    37  C   -0.047309
    38  C   -0.056148
    39  C   -0.195251
    40  C   -0.210603
    41  S    0.280097
    42  C   -0.079358
    43  C   -0.027937
    44  C   -0.090813
    45  C   -0.075637
    46  C   -0.072758
    47  C   -0.094596
    48  C   -0.090403
    49  C   -0.093225
    50  C   -0.082125
    51  C    0.114074
    52  N   -0.473576
    53  C    0.084944
    54  C   -0.071267
    55  C   -0.092004
    56  C   -0.089709
 Sum of Mulliken charges =   0.00000
 Mulliken charges with hydrogens summed into heavy atoms:
               1
    20  N   -0.354785
    21  C    0.222512
    22  C    0.129538
    23  N   -0.298186
    24  C    0.272287
    25  C   -0.070395
    26  O   -0.046081
    27  C    0.416491
    28  O   -0.317296
    29  C    0.049894
    30  S    0.320005
    31  S    0.324819
    32  C   -0.319636
    33  C    0.132214
    34  C    0.065808
    35  C   -0.214518
    36  C   -0.219041
    37  C    0.062363
    38  C    0.054929
    39  C   -0.195251
    40  C   -0.210603
    41  S    0.280097
    42  C   -0.079358
    43  C    0.080334
    44  C    0.007979
    45  C    0.039567
    46  C    0.042332
    47  C    0.003321
    48  C    0.005236
    49  C    0.004915
    50  C    0.031147
    51  C    0.114074
    52  N   -0.473576
    53  C    0.084944
    54  C    0.040649
    55  C    0.006660
    56  C    0.006611
 Electronic spatial extent (au):  <R**2>=          47124.4155
 Charge=              0.0000 electrons
 Dipole moment (field-independent basis, Debye):
    X=             -9.4566    Y=              0.0066    Z=              0.6636  Tot=              9.4799
 Quadrupole moment (field-independent basis, Debye-Ang):
   XX=           -320.1948   YY=           -221.8541   ZZ=           -228.7433
   XY=              1.2373   XZ=              5.7463   YZ=              3.2042
 Traceless Quadrupole moment (field-independent basis, Debye-Ang):
   XX=            -63.2641   YY=             35.0766   ZZ=             28.1874
   XY=              1.2373   XZ=              5.7463   YZ=              3.2042
 Octapole moment (field-independent basis, Debye-Ang**2):
  XXX=          -1769.4558  YYY=             24.1383  ZZZ=              7.0729  XYY=            -25.7603
  XXY=            -13.7831  XXZ=             57.5549  XZZ=             34.8564  YZZ=              5.4973
  YYZ=             -3.4910  XYZ=             25.9832
 Hexadecapole moment (field-independent basis, Debye-Ang**3):
 XXXX=         -79489.9681 YYYY=          -3629.8476 ZZZZ=          -1141.5226 XXXY=            -75.5783
 XXXZ=            377.8591 YYYX=            -69.3252 YYYZ=            -48.1462 ZZZX=             58.2042
 ZZZY=             22.8257 XXYY=          -9908.1329 XXZZ=         -10037.8884 YYZZ=           -764.7239
 XXYZ=            -25.9035 YYXZ=            -53.9853 ZZXY=             31.7576
 N-N= 3.824904624890D+03 E-N=-1.382021346197D+04  KE= 2.618933604192D+03
 1\1\GINC-N009\SP\RB3LYP TD-FC\6-311G(d,p)\C29H19N3O2S3\R2532\18-Apr-20
 21\0\\#N TD(NStates=10) B3lYP/6-311G(d,p)\\Name\\0,1\H,0,-6.848501,1.4
 47723,-1.225671\H,0,-9.849403,-1.401018,1.288192\H,0,-10.556753,1.9122
 36,-1.343405\H,0,2.236446,-2.253271,1.356969\H,0,-5.631579,-2.225753,1
 .593213\H,0,-3.012075,-2.31123,1.448545\H,0,-1.775447,0.922417,-1.9370
 24\H,0,0.827273,0.955055,-1.96889\H,0,4.833176,-2.024149,1.567007\H,0,
 5.885828,4.13441,2.228034\H,0,5.2317,1.761848,1.994243\H,0,5.740362,-1
 .973924,-1.580479\H,0,7.396067,-3.726424,-2.113294\H,0,9.6367,-3.70086
 8,-1.038414\H,0,10.192386,-1.902134,0.583145\H,0,8.529784,-0.161524,1.
 129573\H,0,7.789158,1.3924,-1.430071\H,0,8.464192,3.755197,-1.182147\H
 ,0,7.512528,5.143804,0.64464\N,0,-8.812246,1.046684,-0.761612\C,0,-7.5
 14099,0.805559,-0.657652\C,0,-7.013284,-0.237607,0.151367\N,0,-7.86213
 6,-1.0233,0.845057\C,0,-9.160715,-0.773585,0.733626\C,0,-9.646935,0.26
 1062,-0.067867\O,0,-11.404771,1.569485,-1.005756\C,0,-11.115897,0.5414
 99,-0.192186\O,0,-11.957145,-0.096913,0.384233\C,0,2.808023,-1.474185,
 0.869201\S,0,-0.414683,-0.99334,0.823102\S,0,-4.354085,0.422096,-0.518
 38\C,0,-5.595338,-0.522792,0.282331\C,0,-5.026311,-1.533928,1.025045\C
 ,0,-3.620681,-1.570068,0.947824\C,0,-3.08207,-0.583616,0.143009\C,0,-1
 .6991,-0.322801,-0.167924\C,0,-1.164416,0.426295,-1.194092\C,0,0.24670
 4,0.444332,-1.21209\C,0,0.825771,-0.288432,-0.196883\C,0,2.224075,-0.5
 04399,0.085783\S,0,3.448277,0.580386,-0.557742\C,0,4.729816,-0.292173,
 0.286788\C,0,4.212645,-1.351837,0.990485\C,0,6.306062,3.539078,1.42527
 6\C,0,5.934303,2.204504,1.298677\C,0,6.714639,-1.962591,-1.107721\C,0,
 7.650204,-2.948627,-1.401908\C,0,8.908773,-2.933568,-0.802713\C,0,9.22
 0188,-1.921855,0.103455\C,0,8.286518,-0.938704,0.415676\C,0,7.025523,-
 0.948883,-0.193059\N,0,6.067496,0.060305,0.121739\C,0,6.466006,1.42190
 6,0.267107\C,0,7.379921,1.99315,-0.627243\C,0,7.75703,3.323933,-0.4825
 07\C,0,7.220904,4.105423,0.53987\\Version=ES64L-G09RevD.01\State=1-A\H
 F=-2626.2054843\RMSD=5.083e-09\PG=C01 [X(C29H19N3O2S3)]\\@


     ON THE SURVIVAL OF THE FITTEST -
 "STRONG REPRESENTATIVES FROM EACH PAST ERA THRIVE TODAY,
 SUCH AS PROGRAMMING IN THE THIRTY YEAR OLD LANGUAGE KNOWN
 AS FORTRAN, AND EVEN IN THE ANCIENT SCRIPT KNOWN AS DIRECT
 MACHINE CODE. SOME PEOPLE MIGHT LOOK ON SUCH RELICS AS LIVING
 FOSSILS; OTHERS WOULD POINT OUT THAT EVEN A VERY OLD SPECIES
 MIGHT STILL BE FILLING A PARTICULAR ECOLOGICAL NICHE."
     -- ALAN KAY, SCI.AM. SEPTEMBER 1984
 Job cpu time:       0 days  7 hours 51 minutes 21.7 seconds.
 File lengths (MBytes):  RWF=   1560 Int=      0 D2E=      0 Chk=    227 Scr=      1
 Normal termination of Gaussian 09 at Sun Apr 18 04:11:17 2021.
