 Entering Gaussian System, Link 0=g16
 Input=mex.com
 Output=mex.out
 Initial command:
 /usr/local/apps/gaussian/g16-b01-avx2//g16/l1.exe "/tmp/r2532.887754.maple/Gau-29236.inp" -scrdir="/tmp/r2532.887754.maple/"
 Entering Link 1 = /usr/local/apps/gaussian/g16-b01-avx2//g16/l1.exe PID=     29237.
  
 Copyright (c) 1988-2017, Gaussian, Inc.  All Rights Reserved.
  
 This is part of the Gaussian(R) 16 program.  It is based on
 the Gaussian(R) 09 system (copyright 2009, Gaussian, Inc.),
 the Gaussian(R) 03 system (copyright 2003, Gaussian, Inc.),
 the Gaussian(R) 98 system (copyright 1998, Gaussian, Inc.),
 the Gaussian(R) 94 system (copyright 1995, Gaussian, Inc.),
 the Gaussian 92(TM) system (copyright 1992, Gaussian, Inc.),
 the Gaussian 90(TM) system (copyright 1990, Gaussian, Inc.),
 the Gaussian 88(TM) system (copyright 1988, Gaussian, Inc.),
 the Gaussian 86(TM) system (copyright 1986, Carnegie Mellon
 University), and the Gaussian 82(TM) system (copyright 1983,
 Carnegie Mellon University). Gaussian is a federally registered
 trademark of Gaussian, Inc.
  
 This software contains proprietary and confidential information,
 including trade secrets, belonging to Gaussian, Inc.
  
 This software is provided under written license and may be
 used, copied, transmitted, or stored only in accord with that
 written license.
  
 The following legend is applicable only to US Government
 contracts under FAR:
  
                    RESTRICTED RIGHTS LEGEND
  
 Use, reproduction and disclosure by the US Government is
 subject to restrictions as set forth in subparagraphs (a)
 and (c) of the Commercial Computer Software - Restricted
 Rights clause in FAR 52.227-19.
  
 Gaussian, Inc.
 340 Quinnipiac St., Bldg. 40, Wallingford CT 06492
  
  
 ---------------------------------------------------------------
 Warning -- This program may not be used in any manner that
 competes with the business of Gaussian, Inc. or will provide
 assistance to any competitor of Gaussian, Inc.  The licensee
 of this program is prohibited from giving any competitor of
 Gaussian, Inc. access to this program.  By using this program,
 the user acknowledges that Gaussian, Inc. is engaged in the
 business of creating and licensing software in the field of
 computational chemistry and represents and warrants to the
 licensee that it is not a competitor of Gaussian, Inc. and that
 it will not use this program in any manner prohibited above.
 ---------------------------------------------------------------
  

 Cite this work as:
 Gaussian 16, Revision B.01,
 M. J. Frisch, G. W. Trucks, H. B. Schlegel, G. E. Scuseria, 
 M. A. Robb, J. R. Cheeseman, G. Scalmani, V. Barone, 
 G. A. Petersson, H. Nakatsuji, X. Li, M. Caricato, A. V. Marenich, 
 J. Bloino, B. G. Janesko, R. Gomperts, B. Mennucci, H. P. Hratchian, 
 J. V. Ortiz, A. F. Izmaylov, J. L. Sonnenberg, D. Williams-Young, 
 F. Ding, F. Lipparini, F. Egidi, J. Goings, B. Peng, A. Petrone, 
 T. Henderson, D. Ranasinghe, V. G. Zakrzewski, J. Gao, N. Rega, 
 G. Zheng, W. Liang, M. Hada, M. Ehara, K. Toyota, R. Fukuda, 
 J. Hasegawa, M. Ishida, T. Nakajima, Y. Honda, O. Kitao, H. Nakai, 
 T. Vreven, K. Throssell, J. A. Montgomery, Jr., J. E. Peralta, 
 F. Ogliaro, M. J. Bearpark, J. J. Heyd, E. N. Brothers, K. N. Kudin, 
 V. N. Staroverov, T. A. Keith, R. Kobayashi, J. Normand, 
 K. Raghavachari, A. P. Rendell, J. C. Burant, S. S. Iyengar, 
 J. Tomasi, M. Cossi, J. M. Millam, M. Klene, C. Adamo, R. Cammi, 
 J. W. Ochterski, R. L. Martin, K. Morokuma, O. Farkas, 
 J. B. Foresman, and D. J. Fox, Gaussian, Inc., Wallingford CT, 2016.
 
 ******************************************
 Gaussian 16:  ES64L-G16RevB.01 20-Dec-2017
                 9-Jul-2021 
 ******************************************
 %mem=8gb
 --------------------------
 #N PBE1PBE/6-311G(d,p) OPT
 --------------------------
 1/18=20,19=15,26=3,38=1/1,3;
 2/9=110,12=2,17=6,18=5,40=1/2;
 3/5=4,6=6,7=101,11=2,25=1,30=1,71=1,74=-13/1,2,3;
 4//1;
 5/5=2,38=5/2;
 6/7=2,8=2,9=2,10=2,28=1/1;
 7//1,2,3,16;
 1/18=20,19=15,26=3/3(2);
 2/9=110/2;
 99//99;
 2/9=110/2;
 3/5=4,6=6,7=101,11=2,25=1,30=1,71=1,74=-13/1,2,3;
 4/5=5,16=3,69=1/1;
 5/5=2,38=5/2;
 7//1,2,3,16;
 1/18=20,19=15,26=3/3(-5);
 2/9=110/2;
 6/7=2,8=2,9=2,10=2,19=2,28=1/1;
 99/9=1/99;
 ------------
 C61H46O6N4S3
 ------------
 Symbolic Z-matrix:
 Charge =  0 Multiplicity = 1
 6                    -7.85487   6.02406  -0.40349 
 8                    -6.9301    5.44558   0.50729 
 6                    -6.55144   4.15151   0.3146 
 6                    -7.01308   3.3287   -0.71603 
 6                    -6.54892   2.01784  -0.81965 
 6                    -5.63931   1.50177   0.10224 
 7                    -5.1954    0.14668   0.00462 
 6                    -3.83143  -0.16641   0.01612 
 6                    -3.37685  -1.42332   0.46319 
 6                    -2.02874  -1.73047   0.4692 
 6                    -1.05804  -0.80801   0.0353 
 6                    -1.51945   0.44626  -0.40313 
 6                    -2.86594   0.76331  -0.41674 
 1                    -3.1827    1.73189  -0.78053 
 1                    -0.81097   1.17865  -0.77416 
 6                     0.35539  -1.15676   0.04023 
 16                    1.59829   0.07195   0.05968 
 6                     2.88992  -1.12803   0.04186 
 6                     2.33922  -2.39936   0.04197 
 6                     0.9337   -2.4134    0.03945 
 1                     0.35165  -3.32419   0.00432 
 1                     2.95258  -3.28684   0.02924 
 6                     4.27463  -0.72531   0.02782 
 6                     4.66333   0.61167  -0.04198 
 6                     5.99809   1.0487   -0.05879 
 6                     7.08187   0.17841  -0.0089 
 6                     6.74383  -1.21949   0.06787 
 6                     5.36506  -1.67348   0.0861 
 7                     5.25742  -3.00001   0.1624 
 16                    6.77499  -3.61312   0.20635 
 7                     7.62756  -2.21463   0.13189 
 6                     8.47963   0.52844  -0.0263 
 6                     9.11572   1.73216  -0.0983 
 6                     8.43282   2.9769   -0.21418 
 7                     7.85974   3.97801  -0.29075 
 6                     10.61293   1.84396  -0.16783 
 8                     11.17017   2.79436  -0.63991 
 8                     11.32641   0.79556   0.32049 
 1                     10.76477   0.21745   0.84941 
 1                     9.11986  -0.34882  -0.00524 
 1                     6.16939   2.11421  -0.11888 
 1                     3.89673   1.37542  -0.09279 
 1                    -1.71748  -2.69481   0.85323 
 1                    -4.09183  -2.15159   0.82293 
 6                    -6.18248  -0.88051  -0.10949 
 6                    -7.24314  -0.94913   0.79286 
 6                    -8.22611  -1.93116   0.67429 
 6                    -8.14618  -2.87624  -0.35165 
 6                    -7.08086  -2.8135   -1.25979 
 6                    -6.11918  -1.82388  -1.14572 
 1                    -5.30664  -1.77684  -1.86104 
 1                    -7.03922  -3.54581  -2.05684 
 8                    -9.0421   -3.88202  -0.55586 
 6                    -10.14042  -4.00272   0.33748 
 1                    -9.80465  -4.18371   1.36466 
 1                    -10.77721  -3.11122   0.31483 
 1                    -10.71257  -4.86124  -0.00985 
 1                    -9.03614  -1.95162   1.39075 
 1                    -7.30743  -0.2231    1.59455 
 6                    -5.19181   2.33078   1.14162 
 6                    -5.6331    3.63935   1.24094 
 1                    -5.29209   4.28604   2.04019 
 1                    -4.49192   1.94131   1.87145 
 1                    -6.90644   1.38699  -1.62476 
 1                    -7.72131   3.69391  -1.44742 
 1                    -8.0099    7.04544  -0.06037 
 1                    -7.45583   6.04221  -1.42376 
 1                    -8.81234   5.49115  -0.39674 
 

 GradGradGradGradGradGradGradGradGradGradGradGradGradGradGradGradGradGrad
 Berny optimization.
 Initialization pass.
                           ----------------------------
                           !    Initial Parameters    !
                           ! (Angstroms and Degrees)  !
 --------------------------                            --------------------------
 ! Name  Definition              Value          Derivative Info.                !
 --------------------------------------------------------------------------------
 ! R1    R(1,2)                  1.421          estimate D2E/DX2                !
 ! R2    R(1,66)                 1.0886         estimate D2E/DX2                !
 ! R3    R(1,67)                 1.0957         estimate D2E/DX2                !
 ! R4    R(1,68)                 1.0958         estimate D2E/DX2                !
 ! R5    R(2,3)                  1.362          estimate D2E/DX2                !
 ! R6    R(3,4)                  1.3973         estimate D2E/DX2                !
 ! R7    R(3,61)                 1.4013         estimate D2E/DX2                !
 ! R8    R(4,5)                  1.3945         estimate D2E/DX2                !
 ! R9    R(4,65)                 1.0816         estimate D2E/DX2                !
 ! R10   R(5,6)                  1.3941         estimate D2E/DX2                !
 ! R11   R(5,64)                 1.0835         estimate D2E/DX2                !
 ! R12   R(6,7)                  1.4293         estimate D2E/DX2                !
 ! R13   R(6,60)                 1.4028         estimate D2E/DX2                !
 ! R14   R(7,8)                  1.3995         estimate D2E/DX2                !
 ! R15   R(7,45)                 1.4291         estimate D2E/DX2                !
 ! R16   R(8,9)                  1.4094         estimate D2E/DX2                !
 ! R17   R(8,13)                 1.4085         estimate D2E/DX2                !
 ! R18   R(9,10)                 1.3827         estimate D2E/DX2                !
 ! R19   R(9,44)                 1.0821         estimate D2E/DX2                !
 ! R20   R(10,11)                1.4076         estimate D2E/DX2                !
 ! R21   R(10,43)                1.0837         estimate D2E/DX2                !
 ! R22   R(11,12)                1.4065         estimate D2E/DX2                !
 ! R23   R(11,16)                1.4558         estimate D2E/DX2                !
 ! R24   R(12,13)                1.3834         estimate D2E/DX2                !
 ! R25   R(12,15)                1.0844         estimate D2E/DX2                !
 ! R26   R(13,14)                1.0821         estimate D2E/DX2                !
 ! R27   R(16,17)                1.7478         estimate D2E/DX2                !
 ! R28   R(16,20)                1.3833         estimate D2E/DX2                !
 ! R29   R(17,18)                1.7631         estimate D2E/DX2                !
 ! R30   R(18,19)                1.3855         estimate D2E/DX2                !
 ! R31   R(18,23)                1.4422         estimate D2E/DX2                !
 ! R32   R(19,20)                1.4056         estimate D2E/DX2                !
 ! R33   R(19,22)                1.0789         estimate D2E/DX2                !
 ! R34   R(20,21)                1.0815         estimate D2E/DX2                !
 ! R35   R(23,24)                1.3941         estimate D2E/DX2                !
 ! R36   R(23,28)                1.4462         estimate D2E/DX2                !
 ! R37   R(24,25)                1.4046         estimate D2E/DX2                !
 ! R38   R(24,42)                1.0833         estimate D2E/DX2                !
 ! R39   R(25,26)                1.3908         estimate D2E/DX2                !
 ! R40   R(25,41)                1.0809         estimate D2E/DX2                !
 ! R41   R(26,27)                1.4402         estimate D2E/DX2                !
 ! R42   R(26,32)                1.441          estimate D2E/DX2                !
 ! R43   R(27,28)                1.4517         estimate D2E/DX2                !
 ! R44   R(27,31)                1.3324         estimate D2E/DX2                !
 ! R45   R(28,29)                1.3331         estimate D2E/DX2                !
 ! R46   R(29,30)                1.6373         estimate D2E/DX2                !
 ! R47   R(30,31)                1.6396         estimate D2E/DX2                !
 ! R48   R(32,33)                1.3634         estimate D2E/DX2                !
 ! R49   R(32,40)                1.0862         estimate D2E/DX2                !
 ! R50   R(33,34)                1.4245         estimate D2E/DX2                !
 ! R51   R(33,36)                1.503          estimate D2E/DX2                !
 ! R52   R(34,35)                1.1561         estimate D2E/DX2                !
 ! R53   R(36,37)                1.1986         estimate D2E/DX2                !
 ! R54   R(36,38)                1.3589         estimate D2E/DX2                !
 ! R55   R(38,39)                0.9641         estimate D2E/DX2                !
 ! R56   R(45,46)                1.3942         estimate D2E/DX2                !
 ! R57   R(45,50)                1.4028         estimate D2E/DX2                !
 ! R58   R(46,47)                1.3945         estimate D2E/DX2                !
 ! R59   R(46,59)                1.0835         estimate D2E/DX2                !
 ! R60   R(47,48)                1.3972         estimate D2E/DX2                !
 ! R61   R(47,58)                1.0816         estimate D2E/DX2                !
 ! R62   R(48,49)                1.4013         estimate D2E/DX2                !
 ! R63   R(48,53)                1.3623         estimate D2E/DX2                !
 ! R64   R(49,50)                1.3846         estimate D2E/DX2                !
 ! R65   R(49,52)                1.0832         estimate D2E/DX2                !
 ! R66   R(50,51)                1.0836         estimate D2E/DX2                !
 ! R67   R(53,54)                1.4209         estimate D2E/DX2                !
 ! R68   R(54,55)                1.0957         estimate D2E/DX2                !
 ! R69   R(54,56)                1.0958         estimate D2E/DX2                !
 ! R70   R(54,57)                1.0886         estimate D2E/DX2                !
 ! R71   R(60,61)                1.3845         estimate D2E/DX2                !
 ! R72   R(60,63)                1.0836         estimate D2E/DX2                !
 ! R73   R(61,62)                1.0832         estimate D2E/DX2                !
 ! A1    A(2,1,66)             105.8203         estimate D2E/DX2                !
 ! A2    A(2,1,67)             111.503          estimate D2E/DX2                !
 ! A3    A(2,1,68)             111.5123         estimate D2E/DX2                !
 ! A4    A(66,1,67)            109.2588         estimate D2E/DX2                !
 ! A5    A(66,1,68)            109.2638         estimate D2E/DX2                !
 ! A6    A(67,1,68)            109.3904         estimate D2E/DX2                !
 ! A7    A(1,2,3)              118.4912         estimate D2E/DX2                !
 ! A8    A(2,3,4)              124.889          estimate D2E/DX2                !
 ! A9    A(2,3,61)             115.8436         estimate D2E/DX2                !
 ! A10   A(4,3,61)             119.267          estimate D2E/DX2                !
 ! A11   A(3,4,5)              119.8945         estimate D2E/DX2                !
 ! A12   A(3,4,65)             121.0826         estimate D2E/DX2                !
 ! A13   A(5,4,65)             119.0199         estimate D2E/DX2                !
 ! A14   A(4,5,6)              121.0657         estimate D2E/DX2                !
 ! A15   A(4,5,64)             119.5185         estimate D2E/DX2                !
 ! A16   A(6,5,64)             119.414          estimate D2E/DX2                !
 ! A17   A(5,6,7)              120.5594         estimate D2E/DX2                !
 ! A18   A(5,6,60)             118.6416         estimate D2E/DX2                !
 ! A19   A(7,6,60)             120.7857         estimate D2E/DX2                !
 ! A20   A(6,7,8)              120.9464         estimate D2E/DX2                !
 ! A21   A(6,7,45)             118.1884         estimate D2E/DX2                !
 ! A22   A(8,7,45)             120.8649         estimate D2E/DX2                !
 ! A23   A(7,8,9)              121.0959         estimate D2E/DX2                !
 ! A24   A(7,8,13)             121.1901         estimate D2E/DX2                !
 ! A25   A(9,8,13)             117.714          estimate D2E/DX2                !
 ! A26   A(8,9,10)             120.9286         estimate D2E/DX2                !
 ! A27   A(8,9,44)             119.5079         estimate D2E/DX2                !
 ! A28   A(10,9,44)            119.5549         estimate D2E/DX2                !
 ! A29   A(9,10,11)            121.6978         estimate D2E/DX2                !
 ! A30   A(9,10,43)            118.6385         estimate D2E/DX2                !
 ! A31   A(11,10,43)           119.6253         estimate D2E/DX2                !
 ! A32   A(10,11,12)           117.0166         estimate D2E/DX2                !
 ! A33   A(10,11,16)           120.7625         estimate D2E/DX2                !
 ! A34   A(12,11,16)           122.2201         estimate D2E/DX2                !
 ! A35   A(11,12,13)           121.7856         estimate D2E/DX2                !
 ! A36   A(11,12,15)           119.6428         estimate D2E/DX2                !
 ! A37   A(13,12,15)           118.538          estimate D2E/DX2                !
 ! A38   A(8,13,12)            120.8564         estimate D2E/DX2                !
 ! A39   A(8,13,14)            119.5712         estimate D2E/DX2                !
 ! A40   A(12,13,14)           119.564          estimate D2E/DX2                !
 ! A41   A(11,16,17)           121.4691         estimate D2E/DX2                !
 ! A42   A(11,16,20)           128.5722         estimate D2E/DX2                !
 ! A43   A(17,16,20)           109.9576         estimate D2E/DX2                !
 ! A44   A(16,17,18)            92.4292         estimate D2E/DX2                !
 ! A45   A(17,18,19)           109.4717         estimate D2E/DX2                !
 ! A46   A(17,18,23)           120.8935         estimate D2E/DX2                !
 ! A47   A(19,18,23)           129.6347         estimate D2E/DX2                !
 ! A48   A(18,19,20)           113.9928         estimate D2E/DX2                !
 ! A49   A(18,19,22)           121.9277         estimate D2E/DX2                !
 ! A50   A(20,19,22)           124.0726         estimate D2E/DX2                !
 ! A51   A(16,20,19)           114.1399         estimate D2E/DX2                !
 ! A52   A(16,20,21)           122.6884         estimate D2E/DX2                !
 ! A53   A(19,20,21)           123.1376         estimate D2E/DX2                !
 ! A54   A(18,23,24)           122.4125         estimate D2E/DX2                !
 ! A55   A(18,23,28)           122.717          estimate D2E/DX2                !
 ! A56   A(24,23,28)           114.8705         estimate D2E/DX2                !
 ! A57   A(23,24,25)           124.3296         estimate D2E/DX2                !
 ! A58   A(23,24,42)           118.7629         estimate D2E/DX2                !
 ! A59   A(25,24,42)           116.9065         estimate D2E/DX2                !
 ! A60   A(24,25,26)           123.0496         estimate D2E/DX2                !
 ! A61   A(24,25,41)           117.2576         estimate D2E/DX2                !
 ! A62   A(26,25,41)           119.6919         estimate D2E/DX2                !
 ! A63   A(25,26,27)           115.2359         estimate D2E/DX2                !
 ! A64   A(25,26,32)           127.1141         estimate D2E/DX2                !
 ! A65   A(27,26,32)           117.6501         estimate D2E/DX2                !
 ! A66   A(26,27,28)           121.8114         estimate D2E/DX2                !
 ! A67   A(26,27,31)           124.8754         estimate D2E/DX2                !
 ! A68   A(28,27,31)           113.313          estimate D2E/DX2                !
 ! A69   A(23,28,27)           120.7025         estimate D2E/DX2                !
 ! A70   A(23,28,29)           126.43           estimate D2E/DX2                !
 ! A71   A(27,28,29)           112.8673         estimate D2E/DX2                !
 ! A72   A(28,29,30)           107.4165         estimate D2E/DX2                !
 ! A73   A(29,30,31)            99.2848         estimate D2E/DX2                !
 ! A74   A(27,31,30)           107.1182         estimate D2E/DX2                !
 ! A75   A(26,32,33)           131.886          estimate D2E/DX2                !
 ! A76   A(26,32,40)           112.0427         estimate D2E/DX2                !
 ! A77   A(33,32,40)           116.0453         estimate D2E/DX2                !
 ! A78   A(32,33,34)           123.5131         estimate D2E/DX2                !
 ! A79   A(32,33,36)           122.2008         estimate D2E/DX2                !
 ! A80   A(34,33,36)           114.1292         estimate D2E/DX2                !
 ! A81   A(33,36,37)           122.7058         estimate D2E/DX2                !
 ! A82   A(33,36,38)           116.6794         estimate D2E/DX2                !
 ! A83   A(37,36,38)           120.6096         estimate D2E/DX2                !
 ! A84   A(36,38,39)           110.7274         estimate D2E/DX2                !
 ! A85   A(7,45,46)            120.6057         estimate D2E/DX2                !
 ! A86   A(7,45,50)            120.7417         estimate D2E/DX2                !
 ! A87   A(46,45,50)           118.6411         estimate D2E/DX2                !
 ! A88   A(45,46,47)           121.0553         estimate D2E/DX2                !
 ! A89   A(45,46,59)           119.4078         estimate D2E/DX2                !
 ! A90   A(47,46,59)           119.5355         estimate D2E/DX2                !
 ! A91   A(46,47,48)           119.8972         estimate D2E/DX2                !
 ! A92   A(46,47,58)           119.0063         estimate D2E/DX2                !
 ! A93   A(48,47,58)           121.0935         estimate D2E/DX2                !
 ! A94   A(47,48,49)           119.2805         estimate D2E/DX2                !
 ! A95   A(47,48,53)           124.8781         estimate D2E/DX2                !
 ! A96   A(49,48,53)           115.8411         estimate D2E/DX2                !
 ! A97   A(48,49,50)           120.4404         estimate D2E/DX2                !
 ! A98   A(48,49,52)           118.4133         estimate D2E/DX2                !
 ! A99   A(50,49,52)           121.1396         estimate D2E/DX2                !
 ! A100  A(45,50,49)           120.675          estimate D2E/DX2                !
 ! A101  A(45,50,51)           119.4926         estimate D2E/DX2                !
 ! A102  A(49,50,51)           119.8322         estimate D2E/DX2                !
 ! A103  A(48,53,54)           118.4768         estimate D2E/DX2                !
 ! A104  A(53,54,55)           111.503          estimate D2E/DX2                !
 ! A105  A(53,54,56)           111.5367         estimate D2E/DX2                !
 ! A106  A(53,54,57)           105.8227         estimate D2E/DX2                !
 ! A107  A(55,54,56)           109.3802         estimate D2E/DX2                !
 ! A108  A(55,54,57)           109.2619         estimate D2E/DX2                !
 ! A109  A(56,54,57)           109.2436         estimate D2E/DX2                !
 ! A110  A(6,60,61)            120.6651         estimate D2E/DX2                !
 ! A111  A(6,60,63)            119.5166         estimate D2E/DX2                !
 ! A112  A(61,60,63)           119.8182         estimate D2E/DX2                !
 ! A113  A(3,61,60)            120.4561         estimate D2E/DX2                !
 ! A114  A(3,61,62)            118.4156         estimate D2E/DX2                !
 ! A115  A(60,61,62)           121.1217         estimate D2E/DX2                !
 ! A116  L(33,34,35,7,-1)      178.931          estimate D2E/DX2                !
 ! A117  L(33,34,35,7,-2)      179.1334         estimate D2E/DX2                !
 ! D1    D(66,1,2,3)           179.961          estimate D2E/DX2                !
 ! D2    D(67,1,2,3)           -61.347          estimate D2E/DX2                !
 ! D3    D(68,1,2,3)            61.2581         estimate D2E/DX2                !
 ! D4    D(1,2,3,4)             -0.5385         estimate D2E/DX2                !
 ! D5    D(1,2,3,61)           179.7015         estimate D2E/DX2                !
 ! D6    D(2,3,4,5)            179.6515         estimate D2E/DX2                !
 ! D7    D(2,3,4,65)             0.2989         estimate D2E/DX2                !
 ! D8    D(61,3,4,5)            -0.5961         estimate D2E/DX2                !
 ! D9    D(61,3,4,65)         -179.9488         estimate D2E/DX2                !
 ! D10   D(2,3,61,60)          179.4622         estimate D2E/DX2                !
 ! D11   D(2,3,61,62)            0.3889         estimate D2E/DX2                !
 ! D12   D(4,3,61,60)           -0.3121         estimate D2E/DX2                !
 ! D13   D(4,3,61,62)         -179.3854         estimate D2E/DX2                !
 ! D14   D(3,4,5,6)              0.8578         estimate D2E/DX2                !
 ! D15   D(3,4,5,64)          -179.6328         estimate D2E/DX2                !
 ! D16   D(65,4,5,6)          -179.7762         estimate D2E/DX2                !
 ! D17   D(65,4,5,64)           -0.2667         estimate D2E/DX2                !
 ! D18   D(4,5,6,7)            178.4799         estimate D2E/DX2                !
 ! D19   D(4,5,6,60)            -0.2026         estimate D2E/DX2                !
 ! D20   D(64,5,6,7)            -1.0301         estimate D2E/DX2                !
 ! D21   D(64,5,6,60)         -179.7125         estimate D2E/DX2                !
 ! D22   D(5,6,7,8)            128.7932         estimate D2E/DX2                !
 ! D23   D(5,6,7,45)           -51.0092         estimate D2E/DX2                !
 ! D24   D(60,6,7,8)           -52.5528         estimate D2E/DX2                !
 ! D25   D(60,6,7,45)          127.6448         estimate D2E/DX2                !
 ! D26   D(5,6,60,61)           -0.7153         estimate D2E/DX2                !
 ! D27   D(5,6,60,63)          179.4291         estimate D2E/DX2                !
 ! D28   D(7,6,60,61)         -179.3947         estimate D2E/DX2                !
 ! D29   D(7,6,60,63)            0.7497         estimate D2E/DX2                !
 ! D30   D(6,7,8,9)            153.7101         estimate D2E/DX2                !
 ! D31   D(6,7,8,13)           -26.2118         estimate D2E/DX2                !
 ! D32   D(45,7,8,9)           -26.4928         estimate D2E/DX2                !
 ! D33   D(45,7,8,13)          153.5853         estimate D2E/DX2                !
 ! D34   D(6,7,45,46)          -51.3006         estimate D2E/DX2                !
 ! D35   D(6,7,45,50)          127.4476         estimate D2E/DX2                !
 ! D36   D(8,7,45,46)          128.8968         estimate D2E/DX2                !
 ! D37   D(8,7,45,50)          -52.355          estimate D2E/DX2                !
 ! D38   D(7,8,9,10)           179.7982         estimate D2E/DX2                !
 ! D39   D(7,8,9,44)            -1.2789         estimate D2E/DX2                !
 ! D40   D(13,8,9,10)           -0.2773         estimate D2E/DX2                !
 ! D41   D(13,8,9,44)          178.6456         estimate D2E/DX2                !
 ! D42   D(7,8,13,12)         -179.9639         estimate D2E/DX2                !
 ! D43   D(7,8,13,14)           -1.0188         estimate D2E/DX2                !
 ! D44   D(9,8,13,12)            0.1117         estimate D2E/DX2                !
 ! D45   D(9,8,13,14)          179.0568         estimate D2E/DX2                !
 ! D46   D(8,9,10,11)            0.1375         estimate D2E/DX2                !
 ! D47   D(8,9,10,43)          177.8761         estimate D2E/DX2                !
 ! D48   D(44,9,10,11)        -178.785          estimate D2E/DX2                !
 ! D49   D(44,9,10,43)          -1.0463         estimate D2E/DX2                !
 ! D50   D(9,10,11,12)           0.1681         estimate D2E/DX2                !
 ! D51   D(9,10,11,16)        -179.5054         estimate D2E/DX2                !
 ! D52   D(43,10,11,12)       -177.5487         estimate D2E/DX2                !
 ! D53   D(43,10,11,16)          2.7778         estimate D2E/DX2                !
 ! D54   D(10,11,12,13)         -0.3362         estimate D2E/DX2                !
 ! D55   D(10,11,12,15)       -178.1966         estimate D2E/DX2                !
 ! D56   D(16,11,12,13)        179.3322         estimate D2E/DX2                !
 ! D57   D(16,11,12,15)          1.4718         estimate D2E/DX2                !
 ! D58   D(10,11,16,17)       -158.2264         estimate D2E/DX2                !
 ! D59   D(10,11,16,20)         21.3414         estimate D2E/DX2                !
 ! D60   D(12,11,16,17)         22.1175         estimate D2E/DX2                !
 ! D61   D(12,11,16,20)       -158.3147         estimate D2E/DX2                !
 ! D62   D(11,12,13,8)           0.1997         estimate D2E/DX2                !
 ! D63   D(11,12,13,14)       -178.7454         estimate D2E/DX2                !
 ! D64   D(15,12,13,8)         178.0829         estimate D2E/DX2                !
 ! D65   D(15,12,13,14)         -0.8622         estimate D2E/DX2                !
 ! D66   D(11,16,17,18)       -179.556          estimate D2E/DX2                !
 ! D67   D(20,16,17,18)          0.8035         estimate D2E/DX2                !
 ! D68   D(11,16,20,19)        179.853          estimate D2E/DX2                !
 ! D69   D(11,16,20,21)          1.9164         estimate D2E/DX2                !
 ! D70   D(17,16,20,19)         -0.5392         estimate D2E/DX2                !
 ! D71   D(17,16,20,21)       -178.4758         estimate D2E/DX2                !
 ! D72   D(16,17,18,19)         -0.872          estimate D2E/DX2                !
 ! D73   D(16,17,18,23)        179.0341         estimate D2E/DX2                !
 ! D74   D(17,18,19,20)          0.7301         estimate D2E/DX2                !
 ! D75   D(17,18,19,22)        179.8164         estimate D2E/DX2                !
 ! D76   D(23,18,19,20)       -179.1653         estimate D2E/DX2                !
 ! D77   D(23,18,19,22)         -0.079          estimate D2E/DX2                !
 ! D78   D(17,18,23,24)         -3.3869         estimate D2E/DX2                !
 ! D79   D(17,18,23,28)        176.5548         estimate D2E/DX2                !
 ! D80   D(19,18,23,24)        176.4982         estimate D2E/DX2                !
 ! D81   D(19,18,23,28)         -3.5601         estimate D2E/DX2                !
 ! D82   D(18,19,20,16)         -0.1323         estimate D2E/DX2                !
 ! D83   D(18,19,20,21)        177.7938         estimate D2E/DX2                !
 ! D84   D(22,19,20,16)       -179.1961         estimate D2E/DX2                !
 ! D85   D(22,19,20,21)         -1.27           estimate D2E/DX2                !
 ! D86   D(18,23,24,25)       -179.9673         estimate D2E/DX2                !
 ! D87   D(18,23,24,42)         -0.3307         estimate D2E/DX2                !
 ! D88   D(28,23,24,25)          0.0867         estimate D2E/DX2                !
 ! D89   D(28,23,24,42)        179.7233         estimate D2E/DX2                !
 ! D90   D(18,23,28,27)        179.938          estimate D2E/DX2                !
 ! D91   D(18,23,28,29)         -0.2265         estimate D2E/DX2                !
 ! D92   D(24,23,28,27)         -0.1162         estimate D2E/DX2                !
 ! D93   D(24,23,28,29)        179.7193         estimate D2E/DX2                !
 ! D94   D(23,24,25,26)          0.1069         estimate D2E/DX2                !
 ! D95   D(23,24,25,41)        179.7757         estimate D2E/DX2                !
 ! D96   D(42,24,25,26)       -179.5359         estimate D2E/DX2                !
 ! D97   D(42,24,25,41)          0.133          estimate D2E/DX2                !
 ! D98   D(24,25,26,27)         -0.2518         estimate D2E/DX2                !
 ! D99   D(24,25,26,32)        179.7324         estimate D2E/DX2                !
 ! D100  D(41,25,26,27)       -179.9129         estimate D2E/DX2                !
 ! D101  D(41,25,26,32)          0.0713         estimate D2E/DX2                !
 ! D102  D(25,26,27,28)          0.215          estimate D2E/DX2                !
 ! D103  D(25,26,27,31)       -179.6055         estimate D2E/DX2                !
 ! D104  D(32,26,27,28)       -179.7708         estimate D2E/DX2                !
 ! D105  D(32,26,27,31)          0.4087         estimate D2E/DX2                !
 ! D106  D(25,26,32,33)         -0.3431         estimate D2E/DX2                !
 ! D107  D(25,26,32,40)       -178.3761         estimate D2E/DX2                !
 ! D108  D(27,26,32,33)        179.6408         estimate D2E/DX2                !
 ! D109  D(27,26,32,40)          1.6078         estimate D2E/DX2                !
 ! D110  D(26,27,28,23)         -0.0351         estimate D2E/DX2                !
 ! D111  D(26,27,28,29)       -179.8915         estimate D2E/DX2                !
 ! D112  D(31,27,28,23)        179.8046         estimate D2E/DX2                !
 ! D113  D(31,27,28,29)         -0.0518         estimate D2E/DX2                !
 ! D114  D(26,27,31,30)        179.9286         estimate D2E/DX2                !
 ! D115  D(28,27,31,30)          0.0947         estimate D2E/DX2                !
 ! D116  D(23,28,29,30)       -179.8656         estimate D2E/DX2                !
 ! D117  D(27,28,29,30)         -0.0191         estimate D2E/DX2                !
 ! D118  D(28,29,30,31)          0.0664         estimate D2E/DX2                !
 ! D119  D(29,30,31,27)         -0.0951         estimate D2E/DX2                !
 ! D120  D(26,32,33,34)         -1.8073         estimate D2E/DX2                !
 ! D121  D(26,32,33,36)       -176.9842         estimate D2E/DX2                !
 ! D122  D(40,32,33,34)        176.1634         estimate D2E/DX2                !
 ! D123  D(40,32,33,36)          0.9865         estimate D2E/DX2                !
 ! D124  D(32,33,36,37)        155.8797         estimate D2E/DX2                !
 ! D125  D(32,33,36,38)        -23.297          estimate D2E/DX2                !
 ! D126  D(34,33,36,37)        -19.7148         estimate D2E/DX2                !
 ! D127  D(34,33,36,38)        161.1085         estimate D2E/DX2                !
 ! D128  D(33,36,38,39)        -14.4569         estimate D2E/DX2                !
 ! D129  D(37,36,38,39)        166.348          estimate D2E/DX2                !
 ! D130  D(7,45,46,47)         178.7021         estimate D2E/DX2                !
 ! D131  D(7,45,46,59)          -0.8672         estimate D2E/DX2                !
 ! D132  D(50,45,46,47)         -0.072          estimate D2E/DX2                !
 ! D133  D(50,45,46,59)       -179.6413         estimate D2E/DX2                !
 ! D134  D(7,45,50,49)        -179.599          estimate D2E/DX2                !
 ! D135  D(7,45,50,51)           0.5756         estimate D2E/DX2                !
 ! D136  D(46,45,50,49)         -0.8266         estimate D2E/DX2                !
 ! D137  D(46,45,50,51)        179.348          estimate D2E/DX2                !
 ! D138  D(45,46,47,48)          0.8294         estimate D2E/DX2                !
 ! D139  D(45,46,47,58)       -179.7917         estimate D2E/DX2                !
 ! D140  D(59,46,47,48)       -179.6019         estimate D2E/DX2                !
 ! D141  D(59,46,47,58)         -0.223          estimate D2E/DX2                !
 ! D142  D(46,47,48,49)         -0.6904         estimate D2E/DX2                !
 ! D143  D(46,47,48,53)        179.5191         estimate D2E/DX2                !
 ! D144  D(58,47,48,49)        179.9439         estimate D2E/DX2                !
 ! D145  D(58,47,48,53)          0.1534         estimate D2E/DX2                !
 ! D146  D(47,48,49,50)         -0.1985         estimate D2E/DX2                !
 ! D147  D(47,48,49,52)       -179.2659         estimate D2E/DX2                !
 ! D148  D(53,48,49,50)        179.6105         estimate D2E/DX2                !
 ! D149  D(53,48,49,52)          0.5431         estimate D2E/DX2                !
 ! D150  D(47,48,53,54)         -0.5812         estimate D2E/DX2                !
 ! D151  D(49,48,53,54)        179.6219         estimate D2E/DX2                !
 ! D152  D(48,49,50,45)          0.9668         estimate D2E/DX2                !
 ! D153  D(48,49,50,51)       -179.2083         estimate D2E/DX2                !
 ! D154  D(52,49,50,45)       -179.9915         estimate D2E/DX2                !
 ! D155  D(52,49,50,51)         -0.1666         estimate D2E/DX2                !
 ! D156  D(48,53,54,55)        -61.1299         estimate D2E/DX2                !
 ! D157  D(48,53,54,56)         61.4795         estimate D2E/DX2                !
 ! D158  D(48,53,54,57)       -179.8271         estimate D2E/DX2                !
 ! D159  D(6,60,61,3)            0.9769         estimate D2E/DX2                !
 ! D160  D(6,60,61,62)        -179.9751         estimate D2E/DX2                !
 ! D161  D(63,60,61,3)        -179.1679         estimate D2E/DX2                !
 ! D162  D(63,60,61,62)         -0.1199         estimate D2E/DX2                !
 --------------------------------------------------------------------------------
 Trust Radius=3.00D-01 FncErr=1.00D-07 GrdErr=1.00D-06 EigMax=2.50D+02 EigMin=1.00D-04
 Number of steps in this run=    362 maximum allowed number of steps=    408.
 GradGradGradGradGradGradGradGradGradGradGradGradGradGradGradGradGradGrad

 Stoichiometry    C34H24N4O4S2
 Framework group  C1[X(C34H24N4O4S2)]
 Deg. of freedom   198
 Full point group                 C1      NOp   1
 Largest Abelian subgroup         C1      NOp   1
 Largest concise Abelian subgroup C1      NOp   1
                         Standard orientation:                         
 ---------------------------------------------------------------------
 Center     Atomic      Atomic             Coordinates (Angstroms)
 Number     Number       Type             X           Y           Z
 ---------------------------------------------------------------------
      1          6           0        7.854865    6.024058    0.403487
      2          8           0        6.930098    5.445576   -0.507285
      3          6           0        6.551439    4.151509   -0.314600
      4          6           0        7.013084    3.328698    0.716028
      5          6           0        6.548922    2.017843    0.819648
      6          6           0        5.639310    1.501770   -0.102244
      7          7           0        5.195402    0.146676   -0.004616
      8          6           0        3.831426   -0.166409   -0.016121
      9          6           0        3.376849   -1.423317   -0.463194
     10          6           0        2.028745   -1.730473   -0.469197
     11          6           0        1.058040   -0.808007   -0.035304
     12          6           0        1.519446    0.446258    0.403126
     13          6           0        2.865936    0.763307    0.416735
     14          1           0        3.182701    1.731893    0.780526
     15          1           0        0.810972    1.178648    0.774162
     16          6           0       -0.355386   -1.156756   -0.040233
     17         16           0       -1.598290    0.071945   -0.059677
     18          6           0       -2.889919   -1.128032   -0.041858
     19          6           0       -2.339225   -2.399356   -0.041965
     20          6           0       -0.933701   -2.413395   -0.039446
     21          1           0       -0.351646   -3.324188   -0.004324
     22          1           0       -2.952581   -3.286838   -0.029235
     23          6           0       -4.274635   -0.725308   -0.027824
     24          6           0       -4.663327    0.611667    0.041976
     25          6           0       -5.998093    1.048696    0.058794
     26          6           0       -7.081872    0.178411    0.008897
     27          6           0       -6.743828   -1.219490   -0.067869
     28          6           0       -5.365060   -1.673476   -0.086099
     29          7           0       -5.257420   -3.000011   -0.162402
     30         16           0       -6.774991   -3.613123   -0.206354
     31          7           0       -7.627557   -2.214635   -0.131885
     32          6           0       -8.479634    0.528438    0.026300
     33          6           0       -9.115721    1.732156    0.098297
     34          6           0       -8.432816    2.976899    0.214181
     35          7           0       -7.859740    3.978005    0.290750
     36          6           0      -10.612934    1.843960    0.167833
     37          8           0      -11.170170    2.794364    0.639908
     38          8           0      -11.326407    0.795559   -0.320491
     39          1           0      -10.764773    0.217454   -0.849414
     40          1           0       -9.119864   -0.348824    0.005237
     41          1           0       -6.169390    2.114206    0.118876
     42          1           0       -3.896732    1.375424    0.092792
     43          1           0        1.717481   -2.694805   -0.853227
     44          1           0        4.091832   -2.151590   -0.822929
     45          6           0        6.182485   -0.880510    0.109488
     46          6           0        7.243138   -0.949132   -0.792860
     47          6           0        8.226109   -1.931155   -0.674294
     48          6           0        8.146178   -2.876241    0.351647
     49          6           0        7.080856   -2.813495    1.259788
     50          6           0        6.119176   -1.823881    1.145719
     51          1           0        5.306643   -1.776838    1.861042
     52          1           0        7.039224   -3.545811    2.056842
     53          8           0        9.042096   -3.882022    0.555863
     54          6           0       10.140418   -4.002717   -0.337475
     55          1           0        9.804647   -4.183713   -1.364656
     56          1           0       10.777211   -3.111220   -0.314833
     57          1           0       10.712574   -4.861240    0.009852
     58          1           0        9.036138   -1.951624   -1.390748
     59          1           0        7.307425   -0.223104   -1.594546
     60          6           0        5.191810    2.330782   -1.141623
     61          6           0        5.633098    3.639345   -1.240941
     62          1           0        5.292087    4.286042   -2.040189
     63          1           0        4.491923    1.941314   -1.871452
     64          1           0        6.906439    1.386992    1.624756
     65          1           0        7.721313    3.693910    1.447422
     66          1           0        8.009898    7.045443    0.060366
     67          1           0        7.455829    6.042205    1.423759
     68          1           0        8.812336    5.491153    0.396740
 ---------------------------------------------------------------------
 Rotational constants (GHZ):           0.1203711           0.0186880           0.0163501
 Standard basis: 6-311G(d,p) (5D, 7F)
 There are   996 symmetry adapted cartesian basis functions of A   symmetry.
 There are   952 symmetry adapted basis functions of A   symmetry.
   952 basis functions,  1628 primitive gaussians,   996 cartesian basis functions
   160 alpha electrons      160 beta electrons
       nuclear repulsion energy      4738.9108355456 Hartrees.
 NAtoms=   68 NActive=   68 NUniq=   68 SFac= 1.00D+00 NAtFMM=   60 NAOKFM=T Big=T
 Integral buffers will be    131072 words long.
 Raffenetti 2 integral format.
 Two-electron integral symmetry is turned on.
 One-electron integrals computed using PRISM.
 NBasis=   952 RedAO= T EigKep=  1.21D-04  NBF=   952
 NBsUse=   952 1.00D-06 EigRej= -1.00D+00 NBFU=   952
 ExpMin= 7.71D-02 ExpMax= 9.34D+04 ExpMxC= 3.17D+03 IAcc=3 IRadAn=         5 AccDes= 0.00D+00
 Harris functional with IExCor= 1009 and IRadAn=       5 diagonalized for initial guess.
 HarFok:  IExCor= 1009 AccDes= 0.00D+00 IRadAn=         5 IDoV= 1 UseB2=F ITyADJ=14
 ICtDFT=  3500011 ScaDFX=  1.000000  1.000000  1.000000  1.000000
 FoFCou: FMM=F IPFlag=           0 FMFlag=      100000 FMFlg1=        2001
         NFxFlg=           0 DoJE=T BraDBF=F KetDBF=T FulRan=T
         wScrn=  0.000000 ICntrl=       500 IOpCl=  0 I1Cent=   200000004 NGrid=           0
         NMat0=    1 NMatS0=      1 NMatT0=    0 NMatD0=    1 NMtDS0=    0 NMtDT0=    0
 Petite list used in FoFCou.
 Requested convergence on RMS density matrix=1.00D-08 within 128 cycles.
 Requested convergence on MAX density matrix=1.00D-06.
 Requested convergence on             energy=1.00D-06.
 No special actions if energy rises.
 Integral accuracy reduced to 1.0D-05 until final iterations.
 Initial convergence to 1.0D-05 achieved.  Increase integral accuracy.
 SCF Done:  E(RPBE1PBE) =  -2624.36342554     A.U. after   19 cycles
            NFock= 19  Conv=0.40D-08     -V/T= 2.0030

 **********************************************************************

            Population analysis using the SCF Density.

 **********************************************************************

 Orbital symmetries:
       Occupied  (A) (A) (A) (A) (A) (A) (A) (A) (A) (A) (A) (A)
                 (A) (A) (A) (A) (A) (A) (A) (A) (A) (A) (A) (A)
                 (A) (A) (A) (A) (A) (A) (A) (A) (A) (A) (A) (A)
                 (A) (A) (A) (A) (A) (A) (A) (A) (A) (A) (A) (A)
                 (A) (A) (A) (A) (A) (A) (A) (A) (A) (A) (A) (A)
                 (A) (A) (A) (A) (A) (A) (A) (A) (A) (A) (A) (A)
                 (A) (A) (A) (A) (A) (A) (A) (A) (A) (A) (A) (A)
                 (A) (A) (A) (A) (A) (A) (A) (A) (A) (A) (A) (A)
                 (A) (A) (A) (A) (A) (A) (A) (A) (A) (A) (A) (A)
                 (A) (A) (A) (A) (A) (A) (A) (A) (A) (A) (A) (A)
                 (A) (A) (A) (A) (A) (A) (A) (A) (A) (A) (A) (A)
                 (A) (A) (A) (A) (A) (A) (A) (A) (A) (A) (A) (A)
                 (A) (A) (A) (A) (A) (A) (A) (A) (A) (A) (A) (A)
                 (A) (A) (A) (A)
       Virtual   (A) (A) (A) (A) (A) (A) (A) (A) (A) (A) (A) (A)
                 (A) (A) (A) (A) (A) (A) (A) (A) (A) (A) (A) (A)
                 (A) (A) (A) (A) (A) (A) (A) (A) (A) (A) (A) (A)
                 (A) (A) (A) (A) (A) (A) (A) (A) (A) (A) (A) (A)
                 (A) (A) (A) (A) (A) (A) (A) (A) (A) (A) (A) (A)
                 (A) (A) (A) (A) (A) (A) (A) (A) (A) (A) (A) (A)
                 (A) (A) (A) (A) (A) (A) (A) (A) (A) (A) (A) (A)
                 (A) (A) (A) (A) (A) (A) (A) (A) (A) (A) (A) (A)
                 (A) (A) (A) (A) (A) (A) (A) (A) (A) (A) (A) (A)
                 (A) (A) (A) (A) (A) (A) (A) (A) (A) (A) (A) (A)
                 (A) (A) (A) (A) (A) (A) (A) (A) (A) (A) (A) (A)
                 (A) (A) (A) (A) (A) (A) (A) (A) (A) (A) (A) (A)
                 (A) (A) (A) (A) (A) (A) (A) (A) (A) (A) (A) (A)
                 (A) (A) (A) (A) (A) (A) (A) (A) (A) (A) (A) (A)
                 (A) (A) (A) (A) (A) (A) (A) (A) (A) (A) (A) (A)
                 (A) (A) (A) (A) (A) (A) (A) (A) (A) (A) (A) (A)
                 (A) (A) (A) (A) (A) (A) (A) (A) (A) (A) (A) (A)
                 (A) (A) (A) (A) (A) (A) (A) (A) (A) (A) (A) (A)
                 (A) (A) (A) (A) (A) (A) (A) (A) (A) (A) (A) (A)
                 (A) (A) (A) (A) (A) (A) (A) (A) (A) (A) (A) (A)
                 (A) (A) (A) (A) (A) (A) (A) (A) (A) (A) (A) (A)
                 (A) (A) (A) (A) (A) (A) (A) (A) (A) (A) (A) (A)
                 (A) (A) (A) (A) (A) (A) (A) (A) (A) (A) (A) (A)
                 (A) (A) (A) (A) (A) (A) (A) (A) (A) (A) (A) (A)
                 (A) (A) (A) (A) (A) (A) (A) (A) (A) (A) (A) (A)
                 (A) (A) (A) (A) (A) (A) (A) (A) (A) (A) (A) (A)
                 (A) (A) (A) (A) (A) (A) (A) (A) (A) (A) (A) (A)
                 (A) (A) (A) (A) (A) (A) (A) (A) (A) (A) (A) (A)
                 (A) (A) (A) (A) (A) (A) (A) (A) (A) (A) (A) (A)
                 (A) (A) (A) (A) (A) (A) (A) (A) (A) (A) (A) (A)
                 (A) (A) (A) (A) (A) (A) (A) (A) (A) (A) (A) (A)
                 (A) (A) (A) (A) (A) (A) (A) (A) (A) (A) (A) (A)
                 (A) (A) (A) (A) (A) (A) (A) (A) (A) (A) (A) (A)
                 (A) (A) (A) (A) (A) (A) (A) (A) (A) (A) (A) (A)
                 (A) (A) (A) (A) (A) (A) (A) (A) (A) (A) (A) (A)
                 (A) (A) (A) (A) (A) (A) (A) (A) (A) (A) (A) (A)
                 (A) (A) (A) (A) (A) (A) (A) (A) (A) (A) (A) (A)
                 (A) (A) (A) (A) (A) (A) (A) (A) (A) (A) (A) (A)
                 (A) (A) (A) (A) (A) (A) (A) (A) (A) (A) (A) (A)
                 (A) (A) (A) (A) (A) (A) (A) (A) (A) (A) (A) (A)
                 (A) (A) (A) (A) (A) (A) (A) (A) (A) (A) (A) (A)
                 (A) (A) (A) (A) (A) (A) (A) (A) (A) (A) (A) (A)
                 (A) (A) (A) (A) (A) (A) (A) (A) (A) (A) (A) (A)
                 (A) (A) (A) (A) (A) (A) (A) (A) (A) (A) (A) (A)
                 (A) (A) (A) (A) (A) (A) (A) (A) (A) (A) (A) (A)
                 (A) (A) (A) (A) (A) (A) (A) (A) (A) (A) (A) (A)
                 (A) (A) (A) (A) (A) (A) (A) (A) (A) (A) (A) (A)
                 (A) (A) (A) (A) (A) (A) (A) (A) (A) (A) (A) (A)
                 (A) (A) (A) (A) (A) (A) (A) (A) (A) (A) (A) (A)
                 (A) (A) (A) (A) (A) (A) (A) (A) (A) (A) (A) (A)
                 (A) (A) (A) (A) (A) (A) (A) (A) (A) (A) (A) (A)
                 (A) (A) (A) (A) (A) (A) (A) (A) (A) (A) (A) (A)
                 (A) (A) (A) (A) (A) (A) (A) (A) (A) (A) (A) (A)
                 (A) (A) (A) (A) (A) (A) (A) (A) (A) (A) (A) (A)
                 (A) (A) (A) (A) (A) (A) (A) (A) (A) (A) (A) (A)
                 (A) (A) (A) (A) (A) (A) (A) (A) (A) (A) (A) (A)
                 (A) (A) (A) (A) (A) (A) (A) (A) (A) (A) (A) (A)
                 (A) (A) (A) (A) (A) (A) (A) (A) (A) (A) (A) (A)
                 (A) (A) (A) (A) (A) (A) (A) (A) (A) (A) (A) (A)
                 (A) (A) (A) (A) (A) (A) (A) (A) (A) (A) (A) (A)
                 (A) (A) (A) (A) (A) (A) (A) (A) (A) (A) (A) (A)
                 (A) (A) (A) (A) (A) (A) (A) (A) (A) (A) (A) (A)
                 (A) (A) (A) (A) (A) (A) (A) (A) (A) (A) (A) (A)
                 (A) (A) (A) (A) (A) (A) (A) (A) (A) (A) (A) (A)
                 (A) (A) (A) (A) (A) (A) (A) (A) (A) (A) (A) (A)
                 (A) (A) (A) (A) (A) (A) (A) (A) (A) (A) (A) (A)
 The electronic state is 1-A.
 Alpha  occ. eigenvalues --  -89.12670 -89.06038 -19.25007 -19.24436 -19.24348
 Alpha  occ. eigenvalues --  -19.18788 -14.43963 -14.43759 -14.42852 -14.38157
 Alpha  occ. eigenvalues --  -10.36337 -10.30440 -10.30300 -10.29827 -10.29754
 Alpha  occ. eigenvalues --  -10.28736 -10.28727 -10.28646 -10.28490 -10.28480
 Alpha  occ. eigenvalues --  -10.28424 -10.28390 -10.28013 -10.27454 -10.27403
 Alpha  occ. eigenvalues --  -10.27206 -10.26467 -10.26368 -10.25753 -10.25211
 Alpha  occ. eigenvalues --  -10.24501 -10.24298 -10.24250 -10.24100 -10.24071
 Alpha  occ. eigenvalues --  -10.24070 -10.24042 -10.24007 -10.23889 -10.23817
 Alpha  occ. eigenvalues --  -10.23540 -10.23538 -10.23508 -10.23458  -8.10693
 Alpha  occ. eigenvalues --   -8.04429  -6.04478  -6.03901  -6.03678  -5.98108
 Alpha  occ. eigenvalues --   -5.97742  -5.97388  -1.13897  -1.10922  -1.10837
 Alpha  occ. eigenvalues --   -1.07339  -1.05741  -1.00847  -0.94676  -0.94193
 Alpha  occ. eigenvalues --   -0.93346  -0.91347  -0.89807  -0.89766  -0.87965
 Alpha  occ. eigenvalues --   -0.86707  -0.82632  -0.81031  -0.80548  -0.80173
 Alpha  occ. eigenvalues --   -0.79102  -0.78980  -0.78588  -0.77494  -0.76942
 Alpha  occ. eigenvalues --   -0.75264  -0.73458  -0.72336  -0.70679  -0.68370
 Alpha  occ. eigenvalues --   -0.66487  -0.66146  -0.65678  -0.64953  -0.64700
 Alpha  occ. eigenvalues --   -0.64475  -0.63276  -0.62570  -0.60737  -0.59906
 Alpha  occ. eigenvalues --   -0.58744  -0.58148  -0.57186  -0.57115  -0.55917
 Alpha  occ. eigenvalues --   -0.55121  -0.54433  -0.54290  -0.53068  -0.52291
 Alpha  occ. eigenvalues --   -0.51909  -0.50909  -0.49674  -0.49579  -0.49357
 Alpha  occ. eigenvalues --   -0.49030  -0.48475  -0.47699  -0.47642  -0.47545
 Alpha  occ. eigenvalues --   -0.47468  -0.46436  -0.46231  -0.45537  -0.45251
 Alpha  occ. eigenvalues --   -0.45075  -0.44989  -0.44662  -0.44050  -0.43673
 Alpha  occ. eigenvalues --   -0.43462  -0.42693  -0.41875  -0.41811  -0.41502
 Alpha  occ. eigenvalues --   -0.41259  -0.41162  -0.40900  -0.40843  -0.40799
 Alpha  occ. eigenvalues --   -0.40226  -0.39731  -0.39338  -0.38518  -0.38475
 Alpha  occ. eigenvalues --   -0.38055  -0.37776  -0.37442  -0.36200  -0.35923
 Alpha  occ. eigenvalues --   -0.35429  -0.35336  -0.35239  -0.35154  -0.34725
 Alpha  occ. eigenvalues --   -0.33941  -0.33449  -0.33087  -0.32023  -0.29879
 Alpha  occ. eigenvalues --   -0.29860  -0.29068  -0.28715  -0.28130  -0.28055
 Alpha  occ. eigenvalues --   -0.27725  -0.26194  -0.25426  -0.23062  -0.19808
 Alpha virt. eigenvalues --   -0.12359  -0.07687  -0.05633  -0.03215  -0.01558
 Alpha virt. eigenvalues --   -0.01455  -0.01146  -0.00915  -0.00733  -0.00243
 Alpha virt. eigenvalues --    0.01436   0.01931   0.02250   0.02847   0.04085
 Alpha virt. eigenvalues --    0.04245   0.04743   0.04894   0.04999   0.05271
 Alpha virt. eigenvalues --    0.06171   0.06780   0.07067   0.07538   0.08048
 Alpha virt. eigenvalues --    0.08309   0.08710   0.09330   0.10245   0.10626
 Alpha virt. eigenvalues --    0.10780   0.11089   0.11170   0.11471   0.11610
 Alpha virt. eigenvalues --    0.11753   0.12312   0.13093   0.13245   0.13607
 Alpha virt. eigenvalues --    0.14000   0.14384   0.14394   0.14497   0.15090
 Alpha virt. eigenvalues --    0.15175   0.16041   0.16493   0.16766   0.17086
 Alpha virt. eigenvalues --    0.17509   0.17598   0.18743   0.19096   0.19605
 Alpha virt. eigenvalues --    0.20663   0.20988   0.21237   0.21500   0.21802
 Alpha virt. eigenvalues --    0.22662   0.23267   0.23543   0.23877   0.24309
 Alpha virt. eigenvalues --    0.24486   0.25694   0.25920   0.26331   0.27374
 Alpha virt. eigenvalues --    0.28183   0.28478   0.29100   0.29442   0.30156
 Alpha virt. eigenvalues --    0.30831   0.30971   0.31084   0.31301   0.31377
 Alpha virt. eigenvalues --    0.31551   0.31903   0.32126   0.32805   0.33133
 Alpha virt. eigenvalues --    0.33319   0.34355   0.34437   0.35239   0.36207
 Alpha virt. eigenvalues --    0.36479   0.36673   0.36873   0.37167   0.37385
 Alpha virt. eigenvalues --    0.37536   0.38064   0.38331   0.38562   0.38730
 Alpha virt. eigenvalues --    0.39123   0.39326   0.39361   0.39662   0.39809
 Alpha virt. eigenvalues --    0.40359   0.40387   0.40666   0.40897   0.41194
 Alpha virt. eigenvalues --    0.41331   0.41820   0.41884   0.42003   0.42287
 Alpha virt. eigenvalues --    0.42421   0.42614   0.42893   0.43746   0.44063
 Alpha virt. eigenvalues --    0.44188   0.44495   0.44600   0.44613   0.45317
 Alpha virt. eigenvalues --    0.45445   0.45535   0.45945   0.46736   0.47002
 Alpha virt. eigenvalues --    0.47177   0.47797   0.48063   0.48513   0.48644
 Alpha virt. eigenvalues --    0.48894   0.49207   0.49510   0.49946   0.50253
 Alpha virt. eigenvalues --    0.50484   0.51116   0.51380   0.51546   0.51861
 Alpha virt. eigenvalues --    0.52582   0.52624   0.52879   0.53221   0.53979
 Alpha virt. eigenvalues --    0.54304   0.55035   0.55108   0.55427   0.55559
 Alpha virt. eigenvalues --    0.56082   0.56421   0.57120   0.57280   0.57558
 Alpha virt. eigenvalues --    0.57687   0.58368   0.58623   0.59122   0.59353
 Alpha virt. eigenvalues --    0.59509   0.59758   0.60023   0.60230   0.60378
 Alpha virt. eigenvalues --    0.60760   0.61058   0.61709   0.61875   0.62177
 Alpha virt. eigenvalues --    0.62197   0.62622   0.62766   0.62947   0.63189
 Alpha virt. eigenvalues --    0.63440   0.64094   0.64661   0.65007   0.65101
 Alpha virt. eigenvalues --    0.65266   0.65734   0.66028   0.66145   0.66892
 Alpha virt. eigenvalues --    0.67184   0.67387   0.67745   0.68031   0.68337
 Alpha virt. eigenvalues --    0.68529   0.69359   0.69699   0.70028   0.70141
 Alpha virt. eigenvalues --    0.70510   0.71054   0.71430   0.71753   0.71969
 Alpha virt. eigenvalues --    0.72590   0.73403   0.74011   0.74912   0.75435
 Alpha virt. eigenvalues --    0.76135   0.76817   0.77332   0.77792   0.78381
 Alpha virt. eigenvalues --    0.78932   0.79295   0.79473   0.79715   0.79810
 Alpha virt. eigenvalues --    0.80100   0.80314   0.80744   0.80966   0.81661
 Alpha virt. eigenvalues --    0.82054   0.82489   0.82561   0.82959   0.83352
 Alpha virt. eigenvalues --    0.84088   0.84373   0.84692   0.85447   0.85582
 Alpha virt. eigenvalues --    0.85867   0.86228   0.86684   0.87103   0.87638
 Alpha virt. eigenvalues --    0.87771   0.88496   0.88583   0.88971   0.89577
 Alpha virt. eigenvalues --    0.89703   0.89968   0.90558   0.90894   0.91512
 Alpha virt. eigenvalues --    0.91599   0.92353   0.92974   0.93408   0.94052
 Alpha virt. eigenvalues --    0.94734   0.95450   0.95590   0.95809   0.96321
 Alpha virt. eigenvalues --    0.96524   0.97064   0.97068   0.98018   0.98288
 Alpha virt. eigenvalues --    0.98500   0.98810   0.99135   1.00009   1.00156
 Alpha virt. eigenvalues --    1.00682   1.01643   1.02005   1.02345   1.02530
 Alpha virt. eigenvalues --    1.03176   1.03203   1.03461   1.03905   1.04411
 Alpha virt. eigenvalues --    1.04578   1.05027   1.05584   1.06010   1.06669
 Alpha virt. eigenvalues --    1.07088   1.07262   1.07322   1.07957   1.08388
 Alpha virt. eigenvalues --    1.09018   1.09622   1.09819   1.10105   1.10851
 Alpha virt. eigenvalues --    1.11230   1.12185   1.12897   1.13122   1.13757
 Alpha virt. eigenvalues --    1.14158   1.15062   1.15446   1.16131   1.16653
 Alpha virt. eigenvalues --    1.16862   1.17382   1.18927   1.19548   1.20370
 Alpha virt. eigenvalues --    1.21894   1.22936   1.23363   1.24492   1.24773
 Alpha virt. eigenvalues --    1.24933   1.25888   1.26685   1.27424   1.28143
 Alpha virt. eigenvalues --    1.29233   1.30111   1.30360   1.31671   1.32616
 Alpha virt. eigenvalues --    1.33075   1.33810   1.35482   1.36259   1.36797
 Alpha virt. eigenvalues --    1.37037   1.37799   1.39462   1.39787   1.39846
 Alpha virt. eigenvalues --    1.40390   1.40992   1.42961   1.43104   1.43169
 Alpha virt. eigenvalues --    1.43299   1.43640   1.44161   1.44427   1.44945
 Alpha virt. eigenvalues --    1.46256   1.46409   1.46725   1.46921   1.47261
 Alpha virt. eigenvalues --    1.47796   1.48155   1.48430   1.48589   1.48977
 Alpha virt. eigenvalues --    1.49278   1.49394   1.50241   1.50701   1.51341
 Alpha virt. eigenvalues --    1.52215   1.53081   1.53257   1.53342   1.54350
 Alpha virt. eigenvalues --    1.54695   1.54792   1.55240   1.55970   1.56327
 Alpha virt. eigenvalues --    1.56831   1.57095   1.57508   1.58143   1.58232
 Alpha virt. eigenvalues --    1.58836   1.58982   1.59427   1.59596   1.59655
 Alpha virt. eigenvalues --    1.60107   1.60157   1.60578   1.60989   1.61290
 Alpha virt. eigenvalues --    1.61837   1.62399   1.62929   1.63734   1.64914
 Alpha virt. eigenvalues --    1.65691   1.66454   1.66714   1.66758   1.67587
 Alpha virt. eigenvalues --    1.67776   1.68390   1.68734   1.69014   1.69561
 Alpha virt. eigenvalues --    1.69761   1.70116   1.70142   1.71510   1.72376
 Alpha virt. eigenvalues --    1.72595   1.73209   1.73769   1.73813   1.74515
 Alpha virt. eigenvalues --    1.74746   1.74900   1.75906   1.76710   1.77222
 Alpha virt. eigenvalues --    1.77344   1.77631   1.77723   1.78089   1.78453
 Alpha virt. eigenvalues --    1.78852   1.79035   1.80281   1.81902   1.82632
 Alpha virt. eigenvalues --    1.82933   1.83275   1.85213   1.85251   1.85605
 Alpha virt. eigenvalues --    1.86049   1.86695   1.86975   1.87561   1.88302
 Alpha virt. eigenvalues --    1.88663   1.90073   1.90195   1.90529   1.90758
 Alpha virt. eigenvalues --    1.90940   1.91124   1.92162   1.92184   1.93040
 Alpha virt. eigenvalues --    1.93336   1.93778   1.93843   1.94239   1.95014
 Alpha virt. eigenvalues --    1.95418   1.95734   1.96994   1.97450   1.98665
 Alpha virt. eigenvalues --    1.99101   1.99396   2.00400   2.00799   2.01010
 Alpha virt. eigenvalues --    2.01391   2.01695   2.02048   2.02364   2.02558
 Alpha virt. eigenvalues --    2.03018   2.04104   2.04284   2.04804   2.05743
 Alpha virt. eigenvalues --    2.05917   2.06975   2.07414   2.07593   2.07816
 Alpha virt. eigenvalues --    2.08697   2.08862   2.09427   2.09690   2.10405
 Alpha virt. eigenvalues --    2.11233   2.11709   2.12148   2.12255   2.12947
 Alpha virt. eigenvalues --    2.13708   2.14134   2.16104   2.16495   2.18574
 Alpha virt. eigenvalues --    2.19175   2.19653   2.20827   2.21063   2.22647
 Alpha virt. eigenvalues --    2.22938   2.23643   2.25027   2.27568   2.28409
 Alpha virt. eigenvalues --    2.28864   2.28903   2.30450   2.31241   2.31531
 Alpha virt. eigenvalues --    2.33766   2.34075   2.34422   2.34676   2.34748
 Alpha virt. eigenvalues --    2.35009   2.35680   2.36615   2.36709   2.37083
 Alpha virt. eigenvalues --    2.38525   2.39170   2.40219   2.40456   2.41244
 Alpha virt. eigenvalues --    2.41490   2.41698   2.41941   2.44397   2.46334
 Alpha virt. eigenvalues --    2.46480   2.46589   2.47707   2.49168   2.49834
 Alpha virt. eigenvalues --    2.50662   2.50866   2.51211   2.52377   2.53624
 Alpha virt. eigenvalues --    2.53793   2.54296   2.55625   2.56238   2.56829
 Alpha virt. eigenvalues --    2.57157   2.57519   2.59029   2.60176   2.60279
 Alpha virt. eigenvalues --    2.60539   2.60958   2.61470   2.61805   2.62430
 Alpha virt. eigenvalues --    2.62747   2.63152   2.63419   2.63563   2.63592
 Alpha virt. eigenvalues --    2.63875   2.64329   2.64826   2.65773   2.66414
 Alpha virt. eigenvalues --    2.66579   2.67306   2.67851   2.68476   2.68773
 Alpha virt. eigenvalues --    2.68980   2.69259   2.69981   2.70308   2.70810
 Alpha virt. eigenvalues --    2.71063   2.71408   2.71717   2.72025   2.72760
 Alpha virt. eigenvalues --    2.73270   2.73506   2.74102   2.74602   2.75874
 Alpha virt. eigenvalues --    2.76432   2.76941   2.77240   2.78175   2.78858
 Alpha virt. eigenvalues --    2.78989   2.79950   2.81193   2.81715   2.81914
 Alpha virt. eigenvalues --    2.83160   2.84109   2.85092   2.85881   2.86512
 Alpha virt. eigenvalues --    2.86764   2.87023   2.88031   2.88498   2.88770
 Alpha virt. eigenvalues --    2.89177   2.90209   2.90862   2.91630   2.92833
 Alpha virt. eigenvalues --    2.93659   2.94001   2.94234   2.94591   2.95315
 Alpha virt. eigenvalues --    2.95938   2.96687   2.97102   2.98512   3.00066
 Alpha virt. eigenvalues --    3.00206   3.02435   3.02540   3.02684   3.03196
 Alpha virt. eigenvalues --    3.03920   3.04352   3.04740   3.04828   3.06132
 Alpha virt. eigenvalues --    3.07648   3.08878   3.09169   3.09769   3.11576
 Alpha virt. eigenvalues --    3.11799   3.13210   3.13995   3.14494   3.17972
 Alpha virt. eigenvalues --    3.19183   3.19959   3.21028   3.21446   3.22014
 Alpha virt. eigenvalues --    3.23153   3.23551   3.24555   3.24744   3.24818
 Alpha virt. eigenvalues --    3.28515   3.30208   3.32491   3.34164   3.34216
 Alpha virt. eigenvalues --    3.35219   3.36392   3.36414   3.37569   3.38170
 Alpha virt. eigenvalues --    3.38998   3.39361   3.40383   3.41004   3.41672
 Alpha virt. eigenvalues --    3.43912   3.45742   3.46730   3.48285   3.49786
 Alpha virt. eigenvalues --    3.50931   3.51335   3.52361   3.53325   3.55056
 Alpha virt. eigenvalues --    3.55239   3.57909   3.58166   3.58684   3.60329
 Alpha virt. eigenvalues --    3.62238   3.62886   3.63550   3.63816   3.70795
 Alpha virt. eigenvalues --    3.76877   3.77061   3.77169   3.77719   3.78375
 Alpha virt. eigenvalues --    3.80269   3.80750   3.82537   3.85181   3.88884
 Alpha virt. eigenvalues --    3.89991   3.91522   3.91925   3.93996   3.97684
 Alpha virt. eigenvalues --    3.98486   3.99452   4.01187   4.01860   4.06025
 Alpha virt. eigenvalues --    4.07459   4.07645   4.07914   4.11757   4.12151
 Alpha virt. eigenvalues --    4.12814   4.12972   4.13197   4.14032   4.15513
 Alpha virt. eigenvalues --    4.16229   4.18593   4.18834   4.19389   4.20319
 Alpha virt. eigenvalues --    4.21807   4.37531   4.49675   4.55571   4.63257
 Alpha virt. eigenvalues --    4.73026   4.75376   4.83217   4.85633   4.86252
 Alpha virt. eigenvalues --    4.86318   4.87499   4.93037   4.93136   4.96205
 Alpha virt. eigenvalues --    5.04872   5.06582   5.16187   5.31084   5.31200
 Alpha virt. eigenvalues --    5.31529   5.58400   5.79873   5.80421   5.82376
 Alpha virt. eigenvalues --    7.83355   7.84505  17.20885  17.29054  17.37262
 Alpha virt. eigenvalues --   17.40311  17.57837  17.59618  23.53386  23.57785
 Alpha virt. eigenvalues --   23.61804  23.64252  23.73060  23.81167  23.87826
 Alpha virt. eigenvalues --   23.91216  23.94904  23.95569  23.95670  23.98266
 Alpha virt. eigenvalues --   23.98991  23.99535  24.00665  24.01467  24.02714
 Alpha virt. eigenvalues --   24.02823  24.03847  24.10888  24.11028  24.13261
 Alpha virt. eigenvalues --   24.13841  24.14133  24.20501  24.20815  24.21041
 Alpha virt. eigenvalues --   24.22036  24.22969  24.23807  24.27029  24.27372
 Alpha virt. eigenvalues --   24.27649  24.52788  35.57845  35.70839  35.75037
 Alpha virt. eigenvalues --   35.94897  49.97332  50.04071  50.04167  50.14607
 Alpha virt. eigenvalues --  189.13160 189.15344
          Condensed to atoms (all electrons):
 Mulliken charges:
               1
     1  C   -0.178802
     2  O   -0.356940
     3  C    0.182743
     4  C   -0.140288
     5  C   -0.065359
     6  C    0.043597
     7  N   -0.548136
     8  C    0.215909
     9  C   -0.124140
    10  C   -0.044289
    11  C   -0.009647
    12  C   -0.105433
    13  C   -0.124655
    14  H    0.135291
    15  H    0.116140
    16  C   -0.286916
    17  S    0.357449
    18  C   -0.310496
    19  C   -0.003552
    20  C   -0.050961
    21  H    0.111121
    22  H    0.139564
    23  C    0.132572
    24  C   -0.137619
    25  C   -0.038539
    26  C   -0.082085
    27  C    0.150384
    28  C    0.166999
    29  N   -0.541228
    30  S    0.573148
    31  N   -0.529243
    32  C    0.044597
    33  C   -0.193228
    34  C    0.107736
    35  N   -0.277789
    36  C    0.466896
    37  O   -0.302950
    38  O   -0.305985
    39  H    0.250500
    40  H    0.127934
    41  H    0.143400
    42  H    0.120171
    43  H    0.105116
    44  H    0.134239
    45  C    0.043092
    46  C   -0.064789
    47  C   -0.140397
    48  C    0.182498
    49  C   -0.095980
    50  C   -0.062468
    51  H    0.120326
    52  H    0.119921
    53  O   -0.357395
    54  C   -0.178746
    55  H    0.128436
    56  H    0.127754
    57  H    0.145808
    58  H    0.122867
    59  H    0.116907
    60  C   -0.062509
    61  C   -0.095496
    62  H    0.120607
    63  H    0.120431
    64  H    0.116590
    65  H    0.122851
    66  H    0.146179
    67  H    0.128955
    68  H    0.127335
 Sum of Mulliken charges =  -0.00000
 Mulliken charges with hydrogens summed into heavy atoms:
               1
     1  C    0.223667
     2  O   -0.356940
     3  C    0.182743
     4  C   -0.017436
     5  C    0.051230
     6  C    0.043597
     7  N   -0.548136
     8  C    0.215909
     9  C    0.010099
    10  C    0.060828
    11  C   -0.009647
    12  C    0.010707
    13  C    0.010636
    16  C   -0.286916
    17  S    0.357449
    18  C   -0.310496
    19  C    0.136012
    20  C    0.060160
    23  C    0.132572
    24  C   -0.017448
    25  C    0.104861
    26  C   -0.082085
    27  C    0.150384
    28  C    0.166999
    29  N   -0.541228
    30  S    0.573148
    31  N   -0.529243
    32  C    0.172531
    33  C   -0.193228
    34  C    0.107736
    35  N   -0.277789
    36  C    0.466896
    37  O   -0.302950
    38  O   -0.055485
    45  C    0.043092
    46  C    0.052118
    47  C   -0.017531
    48  C    0.182498
    49  C    0.023940
    50  C    0.057858
    53  O   -0.357395
    54  C    0.223252
    60  C    0.057922
    61  C    0.025112
 Electronic spatial extent (au):  <R**2>=          58756.5891
 Charge=              0.0000 electrons
 Dipole moment (field-independent basis, Debye):
    X=             13.9691    Y=             -5.5984    Z=             -1.5914  Tot=             15.1331
 Quadrupole moment (field-independent basis, Debye-Ang):
   XX=           -294.2147   YY=           -263.3410   ZZ=           -265.2236
   XY=             63.5203   XZ=             16.2539   YZ=              5.2766
 Traceless Quadrupole moment (field-independent basis, Debye-Ang):
   XX=            -19.9549   YY=             10.9188   ZZ=              9.0362
   XY=             63.5203   XZ=             16.2539   YZ=              5.2766
 Octapole moment (field-independent basis, Debye-Ang**2):
  XXX=           1934.5974  YYY=            -67.4322  ZZZ=             -0.8018  XYY=            354.3588
  XXY=           -563.6884  XXZ=           -225.6873  XZZ=             17.1753  YZZ=              6.5570
  YYZ=              3.5204  XYZ=            111.4099
 Hexadecapole moment (field-independent basis, Debye-Ang**3):
 XXXX=         -75659.2867 YYYY=         -10043.1573 ZZZZ=           -742.9711 XXXY=           5596.3168
 XXXZ=           1576.8340 YYYX=           1709.2955 YYYZ=            162.9608 ZZZX=             23.8208
 ZZZY=            -27.1423 XXYY=         -13092.5179 XXZZ=         -11285.5435 YYZZ=          -1849.2559
 XXYZ=            348.4749 YYXZ=            288.6944 ZZXY=             14.8991
 N-N= 4.738910835546D+03 E-N=-1.563005150574D+04  KE= 2.616425816254D+03
 Calling FoFJK, ICntrl=      2127 FMM=T ISym2X=0 I1Cent= 0 IOpClX= 0 NMat=1 NMatS=1 NMatT=0.
 ***** Axes restored to original set *****
 -------------------------------------------------------------------
 Center     Atomic                   Forces (Hartrees/Bohr)
 Number     Number              X              Y              Z
 -------------------------------------------------------------------
      1        6           0.004607246   -0.004500789    0.003679339
      2        8          -0.001688288   -0.003500406   -0.004129456
      3        6          -0.001539386    0.003250248   -0.000210254
      4        6           0.002719080   -0.000868490    0.003110154
      5        6           0.001308942    0.001812742    0.002983730
      6        6           0.000800451   -0.002229451   -0.000139105
      7        7          -0.000114777    0.000035794    0.000034596
      8        6          -0.001798922    0.000405883   -0.000006363
      9        6           0.001536169    0.003189676   -0.001722469
     10        6           0.000120702    0.003847463   -0.001519562
     11        6          -0.001536950    0.000669468    0.000003792
     12        6          -0.001692244   -0.003501631    0.001535579
     13        6          -0.000014128   -0.003551216    0.001654978
     14        1          -0.000665812    0.000980735   -0.000221061
     15        1           0.000776439    0.000519011   -0.000226987
     16        6           0.004023339    0.002066135    0.000027625
     17       16           0.000364539   -0.009290339   -0.000211607
     18        6          -0.004474531    0.001885603   -0.000011277
     19        6          -0.001765055    0.004384785    0.000086622
     20        6           0.001703971    0.003863393    0.000009070
     21        1          -0.000574725   -0.000525700   -0.000018148
     22        1           0.001021943   -0.000948954   -0.000000992
     23        6           0.001222817    0.000690500   -0.000003009
     24        6           0.001647747   -0.004126043    0.000235101
     25        6           0.000841261   -0.004674195    0.000251754
     26        6          -0.001360561   -0.000269090    0.000002258
     27        6          -0.000471647   -0.002482518    0.000148269
     28        6           0.001891374   -0.001782421    0.000151047
     29        7           0.006508244    0.001646680   -0.000101163
     30       16          -0.004439532    0.013078080   -0.000762086
     31        7          -0.006318475   -0.002507038    0.000108879
     32        6          -0.001253815    0.003342609   -0.000116225
     33        6           0.000597761   -0.001217049    0.000016204
     34        6           0.000225535   -0.001213419    0.000104134
     35        7           0.000779792   -0.001631404    0.000114303
     36        6           0.004210929   -0.001259310    0.000588929
     37        8          -0.004135334   -0.005782032    0.002906437
     38        8          -0.005694816    0.004608790   -0.001777759
     39        1           0.000628434    0.002216532   -0.001670614
     40        1           0.000754057   -0.001235498   -0.000023264
     41        1           0.000537259    0.001381377   -0.000111977
     42        1          -0.001019474    0.000465975   -0.000020556
     43        1           0.000342413   -0.000674408    0.000265469
     44        1          -0.001051708   -0.000591002    0.000210400
     45        6           0.001772638    0.001641991    0.000165929
     46        6           0.000557591   -0.002234028   -0.003017924
     47        6           0.002918081   -0.000311163   -0.003050298
     48        6          -0.002835804   -0.002370109    0.000167957
     49        6          -0.000775891    0.002247545    0.003146015
     50        6          -0.002474857    0.000236325    0.002896323
     51        1           0.000820717    0.000193265   -0.000400501
     52        1           0.000019246   -0.000400143   -0.000412330
     53        8          -0.000062555    0.003948684    0.004085500
     54        6           0.006092707    0.002050312   -0.003566658
     55        1           0.000388788    0.000004312    0.000166288
     56        1           0.000094323    0.000384915   -0.000214819
     57        1           0.000102068   -0.000190918   -0.000282001
     58        1          -0.000888865   -0.000242893    0.000547571
     59        1           0.000159106    0.000745243    0.000494596
     60        6          -0.002259133    0.000711161   -0.002932502
     61        6          -0.001589911   -0.001658571   -0.003122033
     62        1           0.000165922    0.000356000    0.000412124
     63        1           0.000651342   -0.000522174    0.000394855
     64        1          -0.000165257   -0.000743670   -0.000484079
     65        1          -0.000683767    0.000585354   -0.000555427
     66        1           0.000171429    0.000129504    0.000287274
     67        1           0.000367062   -0.000190286   -0.000161403
     68        1          -0.000105241   -0.000349733    0.000210806
 -------------------------------------------------------------------
 Cartesian Forces:  Max     0.013078080 RMS     0.002324745

 GradGradGradGradGradGradGradGradGradGradGradGradGradGradGradGradGradGrad
 Berny optimization.
 FormGI is forming the generalized inverse of G from B-inverse, IUseBI=4.
 Internal  Forces:  Max     0.009165101 RMS     0.002233794
 Search for a local minimum.
 Step number   1 out of a maximum of  362
 All quantities printed in internal units (Hartrees-Bohrs-Radians)
 Mixed Optimization -- RFO/linear search
 Second derivative matrix not updated -- first step.
 ITU=  0
     Eigenvalues ---    0.00726   0.01215   0.01304   0.01306   0.01350
     Eigenvalues ---    0.01414   0.01415   0.01441   0.01485   0.01531
     Eigenvalues ---    0.01546   0.01638   0.01654   0.01694   0.01698
     Eigenvalues ---    0.01718   0.01728   0.01751   0.01772   0.01791
     Eigenvalues ---    0.01830   0.01861   0.01861   0.01890   0.01897
     Eigenvalues ---    0.01982   0.02076   0.02078   0.02089   0.02091
     Eigenvalues ---    0.02092   0.02093   0.02094   0.02107   0.02112
     Eigenvalues ---    0.02112   0.02129   0.02140   0.02140   0.02142
     Eigenvalues ---    0.02143   0.02143   0.02149   0.02150   0.02163
     Eigenvalues ---    0.02164   0.02166   0.02166   0.02179   0.02179
     Eigenvalues ---    0.02190   0.02194   0.02195   0.02205   0.02206
     Eigenvalues ---    0.02215   0.02216   0.02235   0.02352   0.02574
     Eigenvalues ---    0.04919   0.04919   0.10022   0.10023   0.10653
     Eigenvalues ---    0.10654   0.15987   0.15988   0.15990   0.15997
     Eigenvalues ---    0.15997   0.15998   0.15998   0.15998   0.15998
     Eigenvalues ---    0.15999   0.15999   0.16000   0.16000   0.16000
     Eigenvalues ---    0.16000   0.16000   0.16000   0.16000   0.16000
     Eigenvalues ---    0.16000   0.16000   0.16000   0.16000   0.16000
     Eigenvalues ---    0.22000   0.22000   0.22001   0.22002   0.22456
     Eigenvalues ---    0.22674   0.22944   0.22965   0.22965   0.23998
     Eigenvalues ---    0.23998   0.24000   0.24477   0.24532   0.24953
     Eigenvalues ---    0.24993   0.24994   0.24999   0.24999   0.25000
     Eigenvalues ---    0.25000   0.25000   0.25000   0.25000   0.25000
     Eigenvalues ---    0.25000   0.25000   0.25000   0.25000   0.25000
     Eigenvalues ---    0.25000   0.25000   0.25000   0.25000   0.25000
     Eigenvalues ---    0.28820   0.30138   0.32066   0.34151   0.34151
     Eigenvalues ---    0.34160   0.34164   0.34756   0.34974   0.34978
     Eigenvalues ---    0.35250   0.35464   0.35557   0.35563   0.35567
     Eigenvalues ---    0.35574   0.35576   0.35597   0.35611   0.35612
     Eigenvalues ---    0.35739   0.35747   0.35799   0.35801   0.35818
     Eigenvalues ---    0.35890   0.36129   0.37492   0.37586   0.38842
     Eigenvalues ---    0.39291   0.39445   0.40871   0.41092   0.41112
     Eigenvalues ---    0.41673   0.41791   0.41922   0.41926   0.42216
     Eigenvalues ---    0.42218   0.42305   0.42326   0.42838   0.43189
     Eigenvalues ---    0.43220   0.43571   0.44308   0.44338   0.45221
     Eigenvalues ---    0.45399   0.45549   0.45555   0.45704   0.45888
     Eigenvalues ---    0.45891   0.46455   0.46466   0.46507   0.46616
     Eigenvalues ---    0.47752   0.47765   0.47943   0.48555   0.52276
     Eigenvalues ---    0.52477   0.52540   0.53168   0.54611   0.55595
     Eigenvalues ---    0.58169   1.05531   1.30402
 RFO step:  Lambda=-4.34552828D-03 EMin= 7.26381401D-03
 Linear search not attempted -- first point.
 Iteration  1 RMS(Cart)=  0.06881223 RMS(Int)=  0.00044536
 Iteration  2 RMS(Cart)=  0.00100453 RMS(Int)=  0.00000283
 Iteration  3 RMS(Cart)=  0.00000045 RMS(Int)=  0.00000283
 Variable       Old X    -DE/DX   Delta X   Delta X   Delta X     New X
                                 (Linear)    (Quad)   (Total)
    R1        2.68537  -0.00785   0.00000  -0.01838  -0.01838   2.66699
    R2        2.05711   0.00019   0.00000   0.00053   0.00053   2.05764
    R3        2.07053   0.00028   0.00000   0.00081   0.00081   2.07135
    R4        2.07077   0.00026   0.00000   0.00076   0.00076   2.07153
    R5        2.57386  -0.00894   0.00000  -0.01688  -0.01688   2.55698
    R6        2.64043  -0.00408   0.00000  -0.00877  -0.00877   2.63166
    R7        2.64816  -0.00394   0.00000  -0.00858  -0.00858   2.63958
    R8        2.63515  -0.00370   0.00000  -0.00788  -0.00788   2.62727
    R9        2.04397   0.00102   0.00000   0.00282   0.00282   2.04679
   R10        2.63453  -0.00406   0.00000  -0.00865  -0.00865   2.62588
   R11        2.04753   0.00085   0.00000   0.00235   0.00235   2.04989
   R12        2.70096  -0.00822   0.00000  -0.01980  -0.01980   2.68117
   R13        2.65089  -0.00414   0.00000  -0.00908  -0.00908   2.64181
   R14        2.64466  -0.00876   0.00000  -0.01899  -0.01899   2.62567
   R15        2.70070  -0.00822   0.00000  -0.01979  -0.01979   2.68091
   R16        2.66333  -0.00453   0.00000  -0.01017  -0.01017   2.65316
   R17        2.66170  -0.00456   0.00000  -0.01022  -0.01022   2.65149
[...]
 Alpha virt. eigenvalues --    0.11849   0.12407   0.13207   0.13337   0.13768
 Alpha virt. eigenvalues --    0.14205   0.14473   0.14502   0.14660   0.15188
 Alpha virt. eigenvalues --    0.15381   0.16119   0.16441   0.16831   0.17277
 Alpha virt. eigenvalues --    0.17878   0.18089   0.18901   0.19258   0.19702
 Alpha virt. eigenvalues --    0.20837   0.21242   0.21665   0.21750   0.22095
 Alpha virt. eigenvalues --    0.22904   0.23620   0.23767   0.24080   0.24555
 Alpha virt. eigenvalues --    0.24836   0.25911   0.26100   0.26522   0.27609
 Alpha virt. eigenvalues --    0.28332   0.28661   0.29296   0.29550   0.30376
 Alpha virt. eigenvalues --    0.30974   0.31080   0.31144   0.31488   0.31562
 Alpha virt. eigenvalues --    0.31716   0.32174   0.32503   0.33294   0.33357
 Alpha virt. eigenvalues --    0.33600   0.34454   0.34692   0.35452   0.36389
 Alpha virt. eigenvalues --    0.36681   0.36890   0.37035   0.37347   0.37612
 Alpha virt. eigenvalues --    0.37721   0.38282   0.38385   0.38705   0.38938
 Alpha virt. eigenvalues --    0.39200   0.39432   0.39525   0.39926   0.39963
 Alpha virt. eigenvalues --    0.40498   0.40544   0.40795   0.41135   0.41472
 Alpha virt. eigenvalues --    0.41544   0.42000   0.42140   0.42245   0.42435
 Alpha virt. eigenvalues --    0.42621   0.42773   0.43128   0.43901   0.44246
 Alpha virt. eigenvalues --    0.44347   0.44527   0.44750   0.44831   0.45432
 Alpha virt. eigenvalues --    0.45596   0.45722   0.46149   0.46917   0.47086
 Alpha virt. eigenvalues --    0.47419   0.48013   0.48356   0.48681   0.48904
 Alpha virt. eigenvalues --    0.49025   0.49372   0.49748   0.50236   0.50546
 Alpha virt. eigenvalues --    0.50719   0.51159   0.51577   0.51907   0.52078
 Alpha virt. eigenvalues --    0.52718   0.52758   0.53153   0.53413   0.54199
 Alpha virt. eigenvalues --    0.54448   0.55187   0.55338   0.55591   0.55695
 Alpha virt. eigenvalues --    0.56300   0.56533   0.57217   0.57421   0.57683
 Alpha virt. eigenvalues --    0.57800   0.58515   0.58799   0.59207   0.59552
 Alpha virt. eigenvalues --    0.59698   0.59898   0.60218   0.60467   0.60621
 Alpha virt. eigenvalues --    0.60826   0.61264   0.61811   0.62034   0.62303
 Alpha virt. eigenvalues --    0.62406   0.62741   0.62822   0.63052   0.63513
 Alpha virt. eigenvalues --    0.63679   0.64210   0.64840   0.65165   0.65190
 Alpha virt. eigenvalues --    0.65397   0.65959   0.66025   0.66327   0.67154
 Alpha virt. eigenvalues --    0.67396   0.67620   0.68189   0.68301   0.68603
 Alpha virt. eigenvalues --    0.68704   0.69444   0.69725   0.70085   0.70334
 Alpha virt. eigenvalues --    0.70808   0.71185   0.71520   0.71842   0.72096
 Alpha virt. eigenvalues --    0.72842   0.73741   0.74288   0.75083   0.75494
 Alpha virt. eigenvalues --    0.76349   0.77066   0.77637   0.78023   0.78458
 Alpha virt. eigenvalues --    0.79035   0.79337   0.79548   0.79619   0.79837
 Alpha virt. eigenvalues --    0.80380   0.80659   0.80929   0.81186   0.81921
 Alpha virt. eigenvalues --    0.82279   0.82620   0.82844   0.83261   0.83595
 Alpha virt. eigenvalues --    0.84417   0.84622   0.85425   0.85452   0.85702
 Alpha virt. eigenvalues --    0.86020   0.86313   0.86836   0.87232   0.87853
 Alpha virt. eigenvalues --    0.87993   0.88506   0.88680   0.89165   0.89727
 Alpha virt. eigenvalues --    0.89953   0.90491   0.90680   0.91194   0.91680
 Alpha virt. eigenvalues --    0.91963   0.93058   0.93196   0.93841   0.94476
 Alpha virt. eigenvalues --    0.95056   0.95696   0.95889   0.96048   0.96719
 Alpha virt. eigenvalues --    0.96974   0.97247   0.97419   0.98396   0.98777
 Alpha virt. eigenvalues --    0.98821   0.98986   0.99832   1.00338   1.00487
 Alpha virt. eigenvalues --    1.01004   1.01830   1.02146   1.02627   1.03070
 Alpha virt. eigenvalues --    1.03222   1.03472   1.03816   1.04294   1.04802
 Alpha virt. eigenvalues --    1.04959   1.05265   1.05801   1.06172   1.06854
 Alpha virt. eigenvalues --    1.07211   1.07370   1.07680   1.08158   1.08583
 Alpha virt. eigenvalues --    1.09200   1.09825   1.10124   1.10481   1.11282
 Alpha virt. eigenvalues --    1.11635   1.12383   1.13382   1.13445   1.13932
 Alpha virt. eigenvalues --    1.14243   1.15323   1.15729   1.16312   1.16901
 Alpha virt. eigenvalues --    1.17163   1.17609   1.19275   1.19740   1.20480
 Alpha virt. eigenvalues --    1.22179   1.23372   1.23842   1.24637   1.24812
 Alpha virt. eigenvalues --    1.24989   1.26217   1.26992   1.27733   1.28224
 Alpha virt. eigenvalues --    1.29645   1.30445   1.30665   1.31864   1.32720
 Alpha virt. eigenvalues --    1.33293   1.34163   1.35830   1.36619   1.36946
 Alpha virt. eigenvalues --    1.37117   1.38316   1.39732   1.40128   1.40268
 Alpha virt. eigenvalues --    1.40617   1.41256   1.43111   1.43221   1.43341
 Alpha virt. eigenvalues --    1.43418   1.43929   1.44422   1.44673   1.45368
 Alpha virt. eigenvalues --    1.46419   1.46449   1.46975   1.47147   1.47640
 Alpha virt. eigenvalues --    1.47996   1.48290   1.48390   1.48749   1.49454
 Alpha virt. eigenvalues --    1.49585   1.49720   1.50439   1.50917   1.51543
 Alpha virt. eigenvalues --    1.52518   1.53410   1.53510   1.53742   1.54319
 Alpha virt. eigenvalues --    1.55008   1.55179   1.55550   1.56094   1.56259
 Alpha virt. eigenvalues --    1.56923   1.57290   1.57837   1.58415   1.58530
 Alpha virt. eigenvalues --    1.59113   1.59218   1.59709   1.60061   1.60234
 Alpha virt. eigenvalues --    1.60473   1.60553   1.60911   1.61365   1.61665
 Alpha virt. eigenvalues --    1.62218   1.62784   1.63336   1.63974   1.65223
 Alpha virt. eigenvalues --    1.65658   1.66625   1.66735   1.66898   1.68000
 Alpha virt. eigenvalues --    1.68240   1.68882   1.69123   1.69462   1.69894
 Alpha virt. eigenvalues --    1.70160   1.70218   1.70656   1.71952   1.72791
 Alpha virt. eigenvalues --    1.72889   1.73789   1.74228   1.74340   1.74599
 Alpha virt. eigenvalues --    1.74955   1.75007   1.76170   1.76869   1.77473
 Alpha virt. eigenvalues --    1.77509   1.77957   1.78050   1.78140   1.78693
 Alpha virt. eigenvalues --    1.79283   1.79306   1.80886   1.82294   1.82952
 Alpha virt. eigenvalues --    1.83327   1.83844   1.85510   1.85612   1.85934
 Alpha virt. eigenvalues --    1.86557   1.87162   1.87373   1.87997   1.88933
 Alpha virt. eigenvalues --    1.89205   1.90458   1.90537   1.90905   1.91318
 Alpha virt. eigenvalues --    1.91496   1.91616   1.92272   1.92758   1.93338
 Alpha virt. eigenvalues --    1.93654   1.94144   1.94339   1.94703   1.95303
 Alpha virt. eigenvalues --    1.95799   1.96070   1.97165   1.97889   1.98975
 Alpha virt. eigenvalues --    1.99559   1.99713   2.01014   2.01110   2.01334
 Alpha virt. eigenvalues --    2.01686   2.02163   2.02444   2.02993   2.03161
 Alpha virt. eigenvalues --    2.03405   2.04631   2.04783   2.05223   2.06061
 Alpha virt. eigenvalues --    2.06278   2.07172   2.07653   2.07745   2.08061
 Alpha virt. eigenvalues --    2.08927   2.09068   2.09821   2.10372   2.10870
 Alpha virt. eigenvalues --    2.11554   2.12132   2.12458   2.12588   2.13482
 Alpha virt. eigenvalues --    2.14137   2.14599   2.16552   2.17014   2.19375
 Alpha virt. eigenvalues --    2.19586   2.20120   2.21300   2.21747   2.23080
 Alpha virt. eigenvalues --    2.23349   2.24318   2.25387   2.27979   2.28873
 Alpha virt. eigenvalues --    2.29327   2.29407   2.30948   2.31927   2.32106
 Alpha virt. eigenvalues --    2.34436   2.34500   2.34769   2.35156   2.35263
 Alpha virt. eigenvalues --    2.35541   2.36460   2.37074   2.37227   2.37978
 Alpha virt. eigenvalues --    2.39004   2.39606   2.40745   2.41032   2.41411
 Alpha virt. eigenvalues --    2.41577   2.41941   2.42439   2.44875   2.46339
 Alpha virt. eigenvalues --    2.46437   2.46987   2.48351   2.49576   2.50121
 Alpha virt. eigenvalues --    2.50987   2.51363   2.51717   2.53005   2.54168
 Alpha virt. eigenvalues --    2.54246   2.54746   2.56205   2.57031   2.57579
 Alpha virt. eigenvalues --    2.57729   2.57834   2.59568   2.60324   2.60742
 Alpha virt. eigenvalues --    2.60871   2.61295   2.61945   2.62215   2.62756
 Alpha virt. eigenvalues --    2.63031   2.63464   2.63696   2.63893   2.64106
 Alpha virt. eigenvalues --    2.64194   2.64625   2.64985   2.66091   2.66661
 Alpha virt. eigenvalues --    2.66905   2.68153   2.68240   2.68994   2.69402
 Alpha virt. eigenvalues --    2.69579   2.69855   2.70385   2.70622   2.71092
 Alpha virt. eigenvalues --    2.71521   2.71841   2.72401   2.72591   2.73133
 Alpha virt. eigenvalues --    2.73875   2.74059   2.74548   2.74909   2.76447
 Alpha virt. eigenvalues --    2.77142   2.77291   2.77369   2.78756   2.79516
 Alpha virt. eigenvalues --    2.79767   2.80329   2.81833   2.82172   2.82568
 Alpha virt. eigenvalues --    2.83624   2.84407   2.85404   2.87128   2.87142
 Alpha virt. eigenvalues --    2.87314   2.87577   2.88964   2.89330   2.89845
 Alpha virt. eigenvalues --    2.90175   2.90776   2.91829   2.92459   2.93773
 Alpha virt. eigenvalues --    2.94419   2.94534   2.94917   2.95188   2.95855
 Alpha virt. eigenvalues --    2.96524   2.97395   2.97969   2.99268   3.00669
 Alpha virt. eigenvalues --    3.00708   3.03187   3.03822   3.03852   3.04023
 Alpha virt. eigenvalues --    3.05516   3.05641   3.05741   3.06063   3.06737
 Alpha virt. eigenvalues --    3.08554   3.10168   3.10360   3.10895   3.12395
 Alpha virt. eigenvalues --    3.12874   3.14526   3.15401   3.15975   3.19173
 Alpha virt. eigenvalues --    3.20205   3.20866   3.22075   3.22700   3.23262
 Alpha virt. eigenvalues --    3.24415   3.24552   3.25620   3.25825   3.25894
 Alpha virt. eigenvalues --    3.29619   3.31143   3.33532   3.35199   3.35918
 Alpha virt. eigenvalues --    3.36674   3.37561   3.37639   3.38487   3.39335
 Alpha virt. eigenvalues --    3.39895   3.40282   3.41370   3.41887   3.43431
 Alpha virt. eigenvalues --    3.45261   3.46892   3.48085   3.49195   3.50762
 Alpha virt. eigenvalues --    3.51897   3.51975   3.53233   3.54131   3.55923
 Alpha virt. eigenvalues --    3.56098   3.58391   3.58893   3.59276   3.61737
 Alpha virt. eigenvalues --    3.63278   3.64131   3.64406   3.64767   3.71486
 Alpha virt. eigenvalues --    3.77078   3.77260   3.77361   3.78307   3.78561
 Alpha virt. eigenvalues --    3.80787   3.81233   3.82995   3.86004   3.89952
 Alpha virt. eigenvalues --    3.91167   3.91566   3.92054   3.94127   3.98059
 Alpha virt. eigenvalues --    3.98500   3.99531   4.01150   4.02446   4.06749
 Alpha virt. eigenvalues --    4.08438   4.08673   4.08830   4.12039   4.12327
 Alpha virt. eigenvalues --    4.13215   4.13384   4.14079   4.14267   4.15729
 Alpha virt. eigenvalues --    4.16701   4.18692   4.19355   4.19965   4.20527
 Alpha virt. eigenvalues --    4.22157   4.38051   4.50244   4.56048   4.64008
 Alpha virt. eigenvalues --    4.73781   4.76579   4.84372   4.86519   4.87026
 Alpha virt. eigenvalues --    4.87124   4.87827   4.93314   4.93404   4.96539
 Alpha virt. eigenvalues --    5.05279   5.08795   5.18078   5.32969   5.33080
 Alpha virt. eigenvalues --    5.33158   5.59428   5.81710   5.82253   5.83496
 Alpha virt. eigenvalues --    7.85528   7.86613  17.20827  17.29155  17.38432
 Alpha virt. eigenvalues --   17.40953  17.58877  17.60527  23.53591  23.58225
 Alpha virt. eigenvalues --   23.62299  23.64677  23.73732  23.81960  23.89569
 Alpha virt. eigenvalues --   23.92483  23.95931  23.96024  23.96461  23.99636
 Alpha virt. eigenvalues --   24.00447  24.00981  24.01582  24.02928  24.03481
 Alpha virt. eigenvalues --   24.03564  24.06190  24.12603  24.12671  24.14738
 Alpha virt. eigenvalues --   24.15218  24.15262  24.21759  24.22206  24.22471
 Alpha virt. eigenvalues --   24.23261  24.24516  24.25201  24.28453  24.28753
 Alpha virt. eigenvalues --   24.29057  24.53949  35.58309  35.71462  35.76510
 Alpha virt. eigenvalues --   35.95159  49.97676  50.04471  50.04558  50.15252
 Alpha virt. eigenvalues --  189.15610 189.17568
          Condensed to atoms (all electrons):
 Mulliken charges:
               1
     1  C   -0.184042
     2  O   -0.344441
     3  C    0.181238
     4  C   -0.141572
     5  C   -0.069545
     6  C    0.045407
     7  N   -0.542989
     8  C    0.216063
     9  C   -0.128422
    10  C   -0.042091
    11  C   -0.008714
    12  C   -0.106305
    13  C   -0.129192
    14  H    0.136885
    15  H    0.115636
    16  C   -0.290627
    17  S    0.369021
    18  C   -0.312652
    19  C   -0.004773
    20  C   -0.051709
    21  H    0.110150
    22  H    0.138902
    23  C    0.133489
    24  C   -0.138130
    25  C   -0.038295
    26  C   -0.080841
    27  C    0.146200
    28  C    0.165362
    29  N   -0.542629
    30  S    0.581024
    31  N   -0.530292
    32  C    0.043639
    33  C   -0.195110
    34  C    0.105412
    35  N   -0.278364
    36  C    0.466658
    37  O   -0.303984
    38  O   -0.296901
    39  H    0.249622
    40  H    0.127557
    41  H    0.142942
    42  H    0.119043
    43  H    0.104307
    44  H    0.135751
    45  C    0.049042
    46  C   -0.070437
    47  C   -0.141782
    48  C    0.180894
    49  C   -0.095629
    50  C   -0.068482
    51  H    0.122418
    52  H    0.118638
    53  O   -0.344983
    54  C   -0.183965
    55  H    0.127734
    56  H    0.126875
    57  H    0.144816
    58  H    0.123018
    59  H    0.118685
    60  C   -0.067432
    61  C   -0.094982
    62  H    0.119452
    63  H    0.122384
    64  H    0.118042
    65  H    0.123075
    66  H    0.145238
    67  H    0.128242
    68  H    0.126453
 Sum of Mulliken charges =  -0.00000
 Mulliken charges with hydrogens summed into heavy atoms:
               1
     1  C    0.215890
     2  O   -0.344441
     3  C    0.181238
     4  C   -0.018497
     5  C    0.048497
     6  C    0.045407
     7  N   -0.542989
     8  C    0.216063
     9  C    0.007329
    10  C    0.062216
    11  C   -0.008714
    12  C    0.009330
    13  C    0.007693
    16  C   -0.290627
    17  S    0.369021
    18  C   -0.312652
    19  C    0.134129
    20  C    0.058442
    23  C    0.133489
    24  C   -0.019088
    25  C    0.104647
    26  C   -0.080841
    27  C    0.146200
    28  C    0.165362
    29  N   -0.542629
    30  S    0.581024
    31  N   -0.530292
    32  C    0.171197
    33  C   -0.195110
    34  C    0.105412
    35  N   -0.278364
    36  C    0.466658
    37  O   -0.303984
    38  O   -0.047279
    45  C    0.049042
    46  C    0.048248
    47  C   -0.018764
    48  C    0.180894
    49  C    0.023009
    50  C    0.053936
    53  O   -0.344983
    54  C    0.215461
    60  C    0.054951
    61  C    0.024470
 Electronic spatial extent (au):  <R**2>=          58093.5411
 Charge=             -0.0000 electrons
 Dipole moment (field-independent basis, Debye):
    X=             13.6549    Y=             -5.6058    Z=             -1.5461  Tot=             14.8415
 Quadrupole moment (field-independent basis, Debye-Ang):
   XX=           -292.0975   YY=           -264.4205   ZZ=           -265.3854
   XY=             64.2539   XZ=             15.6809   YZ=              4.7617
 Traceless Quadrupole moment (field-independent basis, Debye-Ang):
   XX=            -18.1297   YY=              9.5473   ZZ=              8.5824
   XY=             64.2539   XZ=             15.6809   YZ=              4.7617
 Octapole moment (field-independent basis, Debye-Ang**2):
  XXX=           1886.3812  YYY=            -68.1627  ZZZ=             -1.3603  XYY=            342.8737
  XXY=           -554.2371  XXZ=           -217.2343  XZZ=             11.1885  YZZ=              6.3022
  YYZ=              3.7610  XYZ=            104.3751
 Hexadecapole moment (field-independent basis, Debye-Ang**3):
 XXXX=         -74316.4170 YYYY=          -9997.9145 ZZZZ=           -718.9049 XXXY=           5600.4230
 XXXZ=           1487.7476 YYYX=           1697.9400 YYYZ=            146.4815 ZZZX=             23.7437
 ZZZY=            -23.8281 XXYY=         -13061.4720 XXZZ=         -11159.0999 YYZZ=          -1830.1030
 XXYZ=            312.5350 YYXZ=            279.8487 ZZXY=             10.6612
 N-N= 4.763251587381D+03 E-N=-1.567918086666D+04  KE= 2.617076148329D+03
 1\1\GINC-CN113\FOpt\RPBE1PBE\6-311G(d,p)\C34H24N4O4S2\R2532\09-Jul-202
 1\0\\#N PBE1PBE/6-311G(d,p) OPT\\C61H46O6N4S3\\0,1\C,-7.7966053692,5.9
 736474708,-0.3789513022\O,-6.8481144792,5.4188823113,0.5033245351\C,-6
 .4864326352,4.1286276488,0.3158894838\C,-6.9938523487,3.2977666745,-0.
 6814165656\C,-6.5420779083,1.9868312195,-0.7878601029\C,-5.6000864702,
 1.4792721613,0.1001561734\N,-5.1688275876,0.1309380382,0.0003845687\C,
 -3.8141123398,-0.1871449062,0.0050040293\C,-3.3663988053,-1.4424847284
 ,0.4492511068\C,-2.0220860937,-1.7531570976,0.4517259635\C,-1.05490056
 5,-0.8355246254,0.0159716794\C,-1.5093936896,0.4160998184,-0.421926718
 1\C,-2.8515938647,0.7373812102,-0.4314432257\H,-3.1698439859,1.7074434
 343,-0.794473269\H,-0.7965099169,1.1450633137,-0.795356124\C,0.3541319
 103,-1.1846321009,0.020313857\S,1.5817919933,0.0355841114,0.0415047749
 \C,2.8675044607,-1.1438117646,0.0245418967\C,2.3320023341,-2.418357996
 6,0.0230506491\C,0.9302298775,-2.4392282375,0.0188295347\H,0.347314096
 ,-3.3506307707,-0.0171952177\H,2.9555366092,-3.3007054757,0.0106653464
 \C,4.2448598665,-0.7293052638,0.015116262\C,4.6185318843,0.607507774,-
 0.0503014992\C,5.9466073718,1.0552126209,-0.0604057588\C,7.0318893906,
 0.1936023255,-0.0077768831\C,6.704546223,-1.2005158085,0.0627998238\C,
 5.3379196943,-1.6632716039,0.0742979794\N,5.243730371,-2.9886690908,0.
 1457337685\S,6.7535720494,-3.5760063584,0.1928096876\N,7.5928531095,-2
 .1881352794,0.1272290125\C,8.4241154268,0.5491248728,-0.017034644\C,9.
 0474828367,1.7554052582,-0.0738074362\C,8.3522384726,2.9902806138,-0.1
 787714766\N,7.7681195011,3.984684836,-0.2471611803\C,10.5376814055,1.8
 826606846,-0.1379237347\O,11.0808037128,2.8428744779,-0.5983442382\O,1
 1.2509176122,0.8434596595,0.3387114508\H,10.6864727137,0.2591052093,0.
 8529039857\H,9.0694262717,-0.3273101042,-0.0034532214\H,6.1121441938,2
 .1236029996,-0.117814098\H,3.8421940172,1.363518761,-0.1022882391\H,-1
 .710218366,-2.7185563344,0.8359164299\H,-4.0864348514,-2.1669256634,0.
 8112919934\C,-6.1552282225,-0.8831219409,-0.1068069372\C,-7.2368139816
 ,-0.9109683097,0.766861762\C,-8.2259567907,-1.8817463343,0.6523497095\
 C,-8.1306751346,-2.8572965047,-0.3383412151\C,-7.0432909811,-2.8360552
 426,-1.2160502157\C,-6.0758124023,-1.8563504777,-1.1086740563\H,-5.242
 7211824,-1.8393506636,-1.8032963768\H,-6.9899560696,-3.594531377,-1.98
 88589872\O,-9.029301922,-3.8504399337,-0.5324353794\C,-10.1408332085,-
 3.9126567085,0.3314222691\H,-9.8336677488,-4.0607008658,1.3737060834\H
 ,-10.7574832289,-3.0084815453,0.2608212547\H,-10.7270110563,-4.7711678
 146,0.0062670732\H,-9.0564657343,-1.8708043678,1.3471348524\H,-7.31169
 14701,-0.1566629049,1.5427825612\C,-5.107867605,2.3150431141,1.1082720
 646\C,-5.5362038479,3.6241293888,1.2080725701\H,-5.1594767908,4.279824
 4451,1.9848952623\H,-4.3796061726,1.9282029492,1.8131430323\H,-6.93490
 9487,1.3449900263,-1.5691378911\H,-7.7309042139,3.6591553676,-1.387619
 3047\H,-7.939202018,7.0046224325,-0.0579015084\H,-7.436393882,5.965862
 3605,-1.4146748324\H,-8.7555419782,5.4441706122,-0.3250778479\\Version
 =ES64L-G16RevB.01\State=1-A\HF=-2624.365504\RMSD=4.795e-09\RMSF=1.086e
 -05\Dipole=-5.3677436,-2.2191276,0.5982407\Quadrupole=-13.2832663,6.91
 61718,6.3670946,-47.8533147,11.4930169,-3.5348271\PG=C01 [X(C34H24N4O4
 S2)]\\@


 DEFINE YOUR TERMS, YOU WILL PERMIT ME AGAIN TO SAY, 
 OR WE SHALL NEVER UNDERSTAND ONE ANOTHER.

                                    -- VOLTAIRE
 Job cpu time:       0 days  3 hours 38 minutes 37.0 seconds.
 Elapsed time:       0 days  3 hours 39 minutes  1.2 seconds.
 File lengths (MBytes):  RWF=    557 Int=      0 D2E=      0 Chk=     67 Scr=      1
 Normal termination of Gaussian 16 at Fri Jul  9 16:54:59 2021.
