 Entering Gaussian System, Link 0=g16
 Input=mex.com
 Output=mex.out
 Initial command:
 /usr/local/apps/gaussian/g16-b01-avx2//g16/l1.exe "/tmp/r2532.822179.maple/Gau-15149.inp" -scrdir="/tmp/r2532.822179.maple/"
 Entering Link 1 = /usr/local/apps/gaussian/g16-b01-avx2//g16/l1.exe PID=     15150.
  
 Copyright (c) 1988-2017, Gaussian, Inc.  All Rights Reserved.
  
 This is part of the Gaussian(R) 16 program.  It is based on
 the Gaussian(R) 09 system (copyright 2009, Gaussian, Inc.),
 the Gaussian(R) 03 system (copyright 2003, Gaussian, Inc.),
 the Gaussian(R) 98 system (copyright 1998, Gaussian, Inc.),
 the Gaussian(R) 94 system (copyright 1995, Gaussian, Inc.),
 the Gaussian 92(TM) system (copyright 1992, Gaussian, Inc.),
 the Gaussian 90(TM) system (copyright 1990, Gaussian, Inc.),
 the Gaussian 88(TM) system (copyright 1988, Gaussian, Inc.),
 the Gaussian 86(TM) system (copyright 1986, Carnegie Mellon
 University), and the Gaussian 82(TM) system (copyright 1983,
 Carnegie Mellon University). Gaussian is a federally registered
 trademark of Gaussian, Inc.
  
 This software contains proprietary and confidential information,
 including trade secrets, belonging to Gaussian, Inc.
  
 This software is provided under written license and may be
 used, copied, transmitted, or stored only in accord with that
 written license.
  
 The following legend is applicable only to US Government
 contracts under FAR:
  
                    RESTRICTED RIGHTS LEGEND
  
 Use, reproduction and disclosure by the US Government is
 subject to restrictions as set forth in subparagraphs (a)
 and (c) of the Commercial Computer Software - Restricted
 Rights clause in FAR 52.227-19.
  
 Gaussian, Inc.
 340 Quinnipiac St., Bldg. 40, Wallingford CT 06492
  
  
 ---------------------------------------------------------------
 Warning -- This program may not be used in any manner that
 competes with the business of Gaussian, Inc. or will provide
 assistance to any competitor of Gaussian, Inc.  The licensee
 of this program is prohibited from giving any competitor of
 Gaussian, Inc. access to this program.  By using this program,
 the user acknowledges that Gaussian, Inc. is engaged in the
 business of creating and licensing software in the field of
 computational chemistry and represents and warrants to the
 licensee that it is not a competitor of Gaussian, Inc. and that
 it will not use this program in any manner prohibited above.
 ---------------------------------------------------------------
  

 Cite this work as:
 Gaussian 16, Revision B.01,
 M. J. Frisch, G. W. Trucks, H. B. Schlegel, G. E. Scuseria, 
 M. A. Robb, J. R. Cheeseman, G. Scalmani, V. Barone, 
 G. A. Petersson, H. Nakatsuji, X. Li, M. Caricato, A. V. Marenich, 
 J. Bloino, B. G. Janesko, R. Gomperts, B. Mennucci, H. P. Hratchian, 
 J. V. Ortiz, A. F. Izmaylov, J. L. Sonnenberg, D. Williams-Young, 
 F. Ding, F. Lipparini, F. Egidi, J. Goings, B. Peng, A. Petrone, 
 T. Henderson, D. Ranasinghe, V. G. Zakrzewski, J. Gao, N. Rega, 
 G. Zheng, W. Liang, M. Hada, M. Ehara, K. Toyota, R. Fukuda, 
 J. Hasegawa, M. Ishida, T. Nakajima, Y. Honda, O. Kitao, H. Nakai, 
 T. Vreven, K. Throssell, J. A. Montgomery, Jr., J. E. Peralta, 
 F. Ogliaro, M. J. Bearpark, J. J. Heyd, E. N. Brothers, K. N. Kudin, 
 V. N. Staroverov, T. A. Keith, R. Kobayashi, J. Normand, 
 K. Raghavachari, A. P. Rendell, J. C. Burant, S. S. Iyengar, 
 J. Tomasi, M. Cossi, J. M. Millam, M. Klene, C. Adamo, R. Cammi, 
 J. W. Ochterski, R. L. Martin, K. Morokuma, O. Farkas, 
 J. B. Foresman, and D. J. Fox, Gaussian, Inc., Wallingford CT, 2016.
 
 ******************************************
 Gaussian 16:  ES64L-G16RevB.01 20-Dec-2017
                 4-Jun-2021 
 ******************************************
 %mem=8gb
 --------------------------------------
 #N TD(NStates=10)CAM-B3lYP/6-311G(d,p)
 --------------------------------------
 1/38=1,172=1/1;
 2/12=2,17=6,18=5,40=1/2;
 3/5=4,6=6,7=101,11=9,25=1,30=1,74=-40/1,2,3,8;
 4//1;
 5/5=2,38=5/2;
 8/6=1,10=2,108=10/1;
 9/41=10,42=1,70=2/14;
 6/7=2,8=2,9=2,10=2/1;
 99/5=1,9=1/99;
 ----
 Name
 ----
 Symbolic Z-matrix:
 Charge =  0 Multiplicity = 1
 6                    -7.54656   1.28031   2.6831 
 6                    -8.59284   0.80025   1.67846 
 6                    -7.98235   0.25077   0.55953 
 6                    -6.56003   0.31217   0.72128 
 16                   -5.13957  -0.12657  -0.15444 
 6                    -4.11068   0.4976    1.15417 
 6                    -4.88606   1.00911   2.18405 
 6                    -6.26721   0.90307   1.93847 
 1                    -4.43472   1.43657   3.06607 
 6                    -2.66474   0.42197   1.03683 
 6                    -2.033    -0.18067  -0.03872 
 6                    -0.63086  -0.25993  -0.18826 
 6                     0.27148   0.24855   0.72708 
 6                    -0.32531   0.88604   1.87025 
 7                     0.34172   1.43228   2.88941 
 16                   -0.76461   2.00935   3.9457 
 7                    -2.13753   1.5848    3.1562 
 6                    -1.7736    0.97165   2.02909 
 6                     1.72791   0.12979   0.53474 
 6                     2.6277    1.12709   0.94941 
 6                     3.98947   1.01524   0.71634 
 6                     4.52046  -0.10516   0.05667 
 6                     3.63088  -1.11158  -0.35387 
 6                     2.27135  -0.99257  -0.11446 
 1                     1.61859  -1.79985  -0.426 
 1                     4.01251  -1.99078  -0.85704 
 7                     5.90597  -0.21808  -0.18318 
 6                     6.54171  -1.49099  -0.1626 
 6                     7.45228  -1.84959  -1.16461 
 6                     8.08     -3.08788  -1.14278 
 6                     7.81446  -4.02236  -0.12908 
 6                     6.90281  -3.64961   0.87124 
 6                     6.28186  -2.40695   0.86377 
 1                     5.59547  -2.13832   1.65775 
 1                     6.69846  -4.33368   1.68738 
 6                     8.43148  -5.37235  -0.12359 
 6                     7.65544  -6.505     0.18419 
 6                     8.17534  -7.78766   0.17935 
 6                     9.52092  -7.9917   -0.14652 
 6                     10.32216  -6.89079  -0.44919 
 6                     9.78101  -5.60366  -0.43655 
 8                     10.63086  -4.56749  -0.77251 
 6                     11.17461  -3.85486   0.34196 
 1                     11.76885  -4.52187   0.97704 
 1                     11.81864  -3.07957  -0.07252 
 1                     10.38578  -3.39024   0.94155 
 1                     11.36699  -6.98996  -0.7089 
 8                     9.95073  -9.28402  -0.14462 
 6                     11.3039  -9.54734  -0.48928 
 1                     11.41934  -10.62851  -0.43474 
 1                     11.53197  -9.20921  -1.50608 
 1                     11.99721  -9.07373   0.21479 
 1                     7.55721  -8.6482    0.40295 
 1                     6.603    -6.36838   0.40502 
 1                     8.7765   -3.34401  -1.92978 
 1                     7.6608   -1.15274  -1.96744 
 6                     6.68419   0.93876  -0.47747 
 6                     7.92403   1.13789   0.14191 
 6                     8.69214   2.25591  -0.15308 
 6                     8.25176   3.22435  -1.06829 
 6                     7.00285   3.01772  -1.67325 
 6                     6.23404   1.8943   -1.39461 
 1                     5.27614   1.75911  -1.88237 
 1                     6.62294   3.75359  -2.37299 
 6                     9.07436   4.40407  -1.43832 
 6                     9.74153   5.20481  -0.48801 
 6                     10.49042   6.32069  -0.87975 
 6                     10.58911   6.65654  -2.23319 
 6                     9.93879   5.87832  -3.19152 
 6                     9.20075   4.77855  -2.78304 
 1                     8.71441   4.16688  -3.53423 
 1                     10.03233   6.14434  -4.2365 
 8                     11.29944   7.72032  -2.7049 
 6                     11.98548   8.55072  -1.78071 
 1                     12.74533   7.9914   -1.22289 
 1                     12.4738   9.31926  -2.37762 
 1                     11.29419   9.02763  -1.07644 
 1                     10.98609   6.92239  -0.13449 
 8                     9.60272   4.84075   0.8206 
 6                     10.18347   5.64735   1.83329 
 1                     11.27563   5.6807    1.74829 
 1                     9.78476   6.66773   1.81342 
 1                     9.91281   5.17601   2.77681 
 1                     9.6461    2.38607   0.33983 
 1                     8.28588   0.40521   0.8534 
 1                     4.65463   1.80255   1.04771 
 1                     2.25591   1.99886   1.46887 
 1                    -0.2525   -0.72702  -1.0894 
 1                    -2.636    -0.61438  -0.82843 
 16                   -9.12379  -0.30554  -0.60542 
 6                    -10.46958   0.21283   0.42408 
 6                    -9.994     0.77727   1.5999 
 1                    -10.6534   1.17449   2.35995 
 6                    -11.84609   0.0265    0.00297 
 6                    -12.91105   0.18829   0.91453 
 6                    -14.2207   0.01977   0.51357 
 6                    -14.55361  -0.32748  -0.81418 
 6                    -13.48823  -0.49537  -1.72485 
 6                    -12.17879  -0.32003  -1.32517 
 1                    -11.39185  -0.44104  -2.06047 
 1                    -13.68379  -0.75868  -2.7551 
 6                    -15.95197  -0.48436  -1.12877 
 6                    -16.59811  -0.8011   -2.28498 
 6                    -15.96947  -1.06519  -3.53045 
 7                    -15.5442  -1.29491  -4.58391 
 6                    -18.10357  -0.87839  -2.24275 
 8                    -18.73802  -0.67251  -1.24304 
 8                    -18.72331  -1.19529  -3.39914 
 1                    -18.08775  -1.33222  -4.11588 
 1                    -16.63723  -0.32316  -0.30036 
 1                    -15.01849   0.14807   1.23717 
 1                    -12.7047   0.43079   1.94917 
 6                    -7.63727   2.80425   2.9116 
 1                    -7.55861   3.34721   1.96768 
 1                    -8.58932   3.06642   3.38145 
 1                    -6.83151   3.14023   3.56951 
 6                    -7.66091   0.52423   4.0242 
 1                    -7.60261  -0.55531   3.87171 
 1                    -6.85302   0.81979   4.69878 
 1                    -8.61149   0.75222   4.51444 
 
 Stoichiometry    C61H46N4O6S3
 Framework group  C1[X(C61H46N4O6S3)]
 Deg. of freedom   354
 Full point group                 C1      NOp   1
 Largest Abelian subgroup         C1      NOp   1
 Largest concise Abelian subgroup C1      NOp   1
                         Standard orientation:                         
 ---------------------------------------------------------------------
 Center     Atomic      Atomic             Coordinates (Angstroms)
 Number     Number       Type             X           Y           Z
 ---------------------------------------------------------------------
      1          6           0        7.546561   -1.280310    2.683097
      2          6           0        8.592842   -0.800254    1.678459
      3          6           0        7.982348   -0.250768    0.559527
      4          6           0        6.560027   -0.312166    0.721275
      5         16           0        5.139569    0.126570   -0.154442
      6          6           0        4.110677   -0.497597    1.154165
      7          6           0        4.886064   -1.009111    2.184047
      8          6           0        6.267212   -0.903068    1.938473
      9          1           0        4.434723   -1.436566    3.066072
     10          6           0        2.664740   -0.421969    1.036834
     11          6           0        2.033004    0.180668   -0.038723
     12          6           0        0.630861    0.259925   -0.188264
     13          6           0       -0.271476   -0.248550    0.727084
     14          6           0        0.325305   -0.886039    1.870252
     15          7           0       -0.341718   -1.432283    2.889414
     16         16           0        0.764611   -2.009353    3.945696
     17          7           0        2.137532   -1.584801    3.156203
     18          6           0        1.773595   -0.971653    2.029089
     19          6           0       -1.727905   -0.129793    0.534743
     20          6           0       -2.627700   -1.127090    0.949407
     21          6           0       -3.989468   -1.015240    0.716343
     22          6           0       -4.520458    0.105162    0.056672
     23          6           0       -3.630876    1.111584   -0.353867
     24          6           0       -2.271351    0.992571   -0.114460
     25          1           0       -1.618590    1.799849   -0.426000
     26          1           0       -4.012512    1.990779   -0.857038
     27          7           0       -5.905965    0.218076   -0.183178
     28          6           0       -6.541714    1.490986   -0.162595
     29          6           0       -7.452277    1.849593   -1.164607
     30          6           0       -8.080003    3.087880   -1.142777
     31          6           0       -7.814461    4.022365   -0.129081
     32          6           0       -6.902809    3.649608    0.871239
     33          6           0       -6.281857    2.406948    0.863770
     34          1           0       -5.595470    2.138317    1.657746
     35          1           0       -6.698462    4.333679    1.687379
     36          6           0       -8.431479    5.372355   -0.123591
     37          6           0       -7.655440    6.504999    0.184186
     38          6           0       -8.175336    7.787662    0.179345
     39          6           0       -9.520917    7.991698   -0.146516
     40          6           0      -10.322163    6.890794   -0.449187
     41          6           0       -9.781010    5.603663   -0.436548
     42          8           0      -10.630860    4.567494   -0.772508
     43          6           0      -11.174607    3.854858    0.341958
     44          1           0      -11.768846    4.521873    0.977035
     45          1           0      -11.818644    3.079567   -0.072520
     46          1           0      -10.385781    3.390238    0.941552
     47          1           0      -11.366991    6.989955   -0.708897
     48          8           0       -9.950727    9.284025   -0.144623
     49          6           0      -11.303899    9.547345   -0.489284
     50          1           0      -11.419341   10.628514   -0.434744
     51          1           0      -11.531966    9.209206   -1.506079
     52          1           0      -11.997205    9.073730    0.214791
     53          1           0       -7.557214    8.648199    0.402949
     54          1           0       -6.602998    6.368378    0.405019
     55          1           0       -8.776499    3.344012   -1.929784
     56          1           0       -7.660802    1.152742   -1.967442
     57          6           0       -6.684190   -0.938764   -0.477466
     58          6           0       -7.924033   -1.137885    0.141914
     59          6           0       -8.692136   -2.255911   -0.153082
     60          6           0       -8.251760   -3.224345   -1.068286
     61          6           0       -7.002848   -3.017724   -1.673254
     62          6           0       -6.234035   -1.894297   -1.394612
     63          1           0       -5.276141   -1.759105   -1.882366
     64          1           0       -6.622935   -3.753594   -2.372990
     65          6           0       -9.074355   -4.404066   -1.438322
     66          6           0       -9.741533   -5.204812   -0.488005
     67          6           0      -10.490422   -6.320690   -0.879745
     68          6           0      -10.589114   -6.656541   -2.233187
     69          6           0       -9.938791   -5.878317   -3.191525
     70          6           0       -9.200749   -4.778553   -2.783035
     71          1           0       -8.714408   -4.166883   -3.534234
     72          1           0      -10.032331   -6.144342   -4.236502
     73          8           0      -11.299441   -7.720324   -2.704903
     74          6           0      -11.985477   -8.550716   -1.780708
     75          1           0      -12.745332   -7.991399   -1.222891
     76          1           0      -12.473802   -9.319260   -2.377619
     77          1           0      -11.294191   -9.027627   -1.076442
     78          1           0      -10.986088   -6.922385   -0.134488
     79          8           0       -9.602716   -4.840751    0.820595
     80          6           0      -10.183472   -5.647349    1.833286
     81          1           0      -11.275635   -5.680701    1.748293
     82          1           0       -9.784755   -6.667732    1.813423
     83          1           0       -9.912805   -5.176009    2.776807
     84          1           0       -9.646101   -2.386068    0.339831
     85          1           0       -8.285881   -0.405206    0.853395
     86          1           0       -4.654626   -1.802552    1.047713
     87          1           0       -2.255914   -1.998856    1.468874
     88          1           0        0.252500    0.727024   -1.089395
     89          1           0        2.635999    0.614377   -0.828430
     90         16           0        9.123789    0.305543   -0.605419
     91          6           0       10.469575   -0.212829    0.424075
     92          6           0        9.994005   -0.777274    1.599899
     93          1           0       10.653402   -1.174492    2.359953
     94          6           0       11.846087   -0.026495    0.002967
     95          6           0       12.911052   -0.188287    0.914530
     96          6           0       14.220700   -0.019765    0.513571
     97          6           0       14.553611    0.327482   -0.814183
     98          6           0       13.488229    0.495374   -1.724850
     99          6           0       12.178791    0.320031   -1.325168
    100          1           0       11.391855    0.441040   -2.060468
    101          1           0       13.683793    0.758683   -2.755101
    102          6           0       15.951965    0.484358   -1.128773
    103          6           0       16.598111    0.801101   -2.284978
    104          6           0       15.969472    1.065192   -3.530449
    105          7           0       15.544201    1.294906   -4.583914
    106          6           0       18.103574    0.878389   -2.242749
    107          8           0       18.738018    0.672509   -1.243038
    108          8           0       18.723307    1.195286   -3.399137
    109          1           0       18.087752    1.332222   -4.115879
    110          1           0       16.637229    0.323158   -0.300363
    111          1           0       15.018492   -0.148074    1.237166
    112          1           0       12.704703   -0.430789    1.949174
    113          6           0        7.637268   -2.804247    2.911604
    114          1           0        7.558605   -3.347206    1.967676
    115          1           0        8.589316   -3.066421    3.381452
    116          1           0        6.831512   -3.140233    3.569513
    117          6           0        7.660911   -0.524229    4.024198
    118          1           0        7.602613    0.555306    3.871714
    119          1           0        6.853024   -0.819794    4.698782
    120          1           0        8.611489   -0.752222    4.514437
 ---------------------------------------------------------------------
 Rotational constants (GHZ):           0.0298996           0.0053444           0.0048132
 Standard basis: 6-311G(d,p) (5D, 7F)
 There are  1706 symmetry adapted cartesian basis functions of A   symmetry.
 There are  1632 symmetry adapted basis functions of A   symmetry.
  1632 basis functions,  2778 primitive gaussians,  1706 cartesian basis functions
   268 alpha electrons      268 beta electrons
       nuclear repulsion energy     10029.7007763290 Hartrees.
 NAtoms=  120 NActive=  120 NUniq=  120 SFac= 1.00D+00 NAtFMM=   60 NAOKFM=T Big=T
 Integral buffers will be    131072 words long.
 Raffenetti 1 integral format.
 Two-electron integral symmetry is turned on.
 One-electron integrals computed using PRISM.
 NBasis=  1632 RedAO= T EigKep=  1.15D-04  NBF=  1632
 NBsUse=  1632 1.00D-06 EigRej= -1.00D+00 NBFU=  1632
 ExpMin= 7.71D-02 ExpMax= 9.34D+04 ExpMxC= 3.17D+03 IAcc=3 IRadAn=         5 AccDes= 0.00D+00
 Harris functional with IExCor=20419 and IRadAn=       5 diagonalized for initial guess.
 HarFok:  IExCor=20419 AccDes= 0.00D+00 IRadAn=         5 IDoV= 1 UseB2=F ITyADJ=14
 ICtDFT=  3500011 ScaDFX=  1.000000  1.000000  1.000000  1.000000
 FoFCou: FMM=F IPFlag=           0 FMFlag=      100000 FMFlg1=        2001
         NFxFlg=           0 DoJE=T BraDBF=F KetDBF=T FulRan=T
         wScrn=  0.000000 ICntrl=       500 IOpCl=  0 I1Cent=   200000004 NGrid=           0
         NMat0=    1 NMatS0=      1 NMatT0=    0 NMatD0=    1 NMtDS0=    0 NMtDT0=    0
 Petite list used in FoFCou.
 Requested convergence on RMS density matrix=1.00D-08 within 128 cycles.
 Requested convergence on MAX density matrix=1.00D-06.
 Requested convergence on             energy=1.00D-06.
 No special actions if energy rises.
 Integral accuracy reduced to 1.0D-05 until final iterations.
 Initial convergence to 1.0D-05 achieved.  Increase integral accuracy.
 SCF Done:  E(RCAM-B3LYP) =  -4216.23939418     A.U. after   17 cycles
            NFock= 17  Conv=0.43D-08     -V/T= 2.0029
 DoSCS=F DFT=T ScalE2(SS,OS)=  1.000000  1.000000
 ExpMin= 7.71D-02 ExpMax= 9.34D+04 ExpMxC= 3.17D+03 IAcc=3 IRadAn=         5 AccDes= 0.00D+00
 HarFok:  IExCor=  205 AccDes= 0.00D+00 IRadAn=         5 IDoV=-2 UseB2=F ITyADJ=14
 ICtDFT= 12500011 ScaDFX=  1.000000  1.000000  1.000000  1.000000
 GSVD:  LWork=       -8084 too small for GESVD, short by       38270 words or       38270 for optimal perf.
 Range of M.O.s used for correlation:    87  1632
 NBasis=  1632 NAE=   268 NBE=   268 NFC=    86 NFV=     0
 NROrb=   1546 NOA=   182 NOB=   182 NVA=  1364 NVB=  1364

 **** Warning!!: The largest alpha MO coefficient is  0.17527765D+02

 Orbital symmetries:
       Occupied  (A) (A) (A) (A) (A) (A) (A) (A) (A) (A) (A) (A)
                 (A) (A) (A) (A) (A) (A) (A) (A) (A) (A) (A) (A)
                 (A) (A) (A) (A) (A) (A) (A) (A) (A) (A) (A) (A)
                 (A) (A) (A) (A) (A) (A) (A) (A) (A) (A) (A) (A)
                 (A) (A) (A) (A) (A) (A) (A) (A) (A) (A) (A) (A)
                 (A) (A) (A) (A) (A) (A) (A) (A) (A) (A) (A) (A)
                 (A) (A) (A) (A) (A) (A) (A) (A) (A) (A) (A) (A)
                 (A) (A) (A) (A) (A) (A) (A) (A) (A) (A) (A) (A)
                 (A) (A) (A) (A) (A) (A) (A) (A) (A) (A) (A) (A)
                 (A) (A) (A) (A) (A) (A) (A) (A) (A) (A) (A) (A)
                 (A) (A) (A) (A) (A) (A) (A) (A) (A) (A) (A) (A)
                 (A) (A) (A) (A) (A) (A) (A) (A) (A) (A) (A) (A)
                 (A) (A) (A) (A) (A) (A) (A) (A) (A) (A) (A) (A)
                 (A) (A) (A) (A) (A) (A) (A) (A) (A) (A) (A) (A)
                 (A) (A) (A) (A) (A) (A) (A) (A) (A) (A) (A) (A)
                 (A) (A) (A) (A) (A) (A) (A) (A) (A) (A) (A) (A)
                 (A) (A) (A) (A) (A) (A) (A) (A) (A) (A) (A) (A)
                 (A) (A) (A) (A) (A) (A) (A) (A) (A) (A) (A) (A)
                 (A) (A) (A) (A) (A) (A) (A) (A) (A) (A) (A) (A)
                 (A) (A) (A) (A) (A) (A) (A) (A) (A) (A) (A) (A)
                 (A) (A) (A) (A) (A) (A) (A) (A) (A) (A) (A) (A)
                 (A) (A) (A) (A) (A) (A) (A) (A) (A) (A) (A) (A)
                 (A) (A) (A) (A)
       Virtual   (A) (A) (A) (A) (A) (A) (A) (A) (A) (A) (A) (A)
                 (A) (A) (A) (A) (A) (A) (A) (A) (A) (A) (A) (A)
                 (A) (A) (A) (A) (A) (A) (A) (A) (A) (A) (A) (A)
                 (A) (A) (A) (A) (A) (A) (A) (A) (A) (A) (A) (A)
                 (A) (A) (A) (A) (A) (A) (A) (A) (A) (A) (A) (A)
                 (A) (A) (A) (A) (A) (A) (A) (A) (A) (A) (A) (A)
                 (A) (A) (A) (A) (A) (A) (A) (A) (A) (A) (A) (A)
                 (A) (A) (A) (A) (A) (A) (A) (A) (A) (A) (A) (A)
                 (A) (A) (A) (A) (A) (A) (A) (A) (A) (A) (A) (A)
                 (A) (A) (A) (A) (A) (A) (A) (A) (A) (A) (A) (A)
                 (A) (A) (A) (A) (A) (A) (A) (A) (A) (A) (A) (A)
                 (A) (A) (A) (A) (A) (A) (A) (A) (A) (A) (A) (A)
                 (A) (A) (A) (A) (A) (A) (A) (A) (A) (A) (A) (A)
                 (A) (A) (A) (A) (A) (A) (A) (A) (A) (A) (A) (A)
                 (A) (A) (A) (A) (A) (A) (A) (A) (A) (A) (A) (A)
                 (A) (A) (A) (A) (A) (A) (A) (A) (A) (A) (A) (A)
                 (A) (A) (A) (A) (A) (A) (A) (A) (A) (A) (A) (A)
                 (A) (A) (A) (A) (A) (A) (A) (A) (A) (A) (A) (A)
                 (A) (A) (A) (A) (A) (A) (A) (A) (A) (A) (A) (A)
                 (A) (A) (A) (A) (A) (A) (A) (A) (A) (A) (A) (A)
                 (A) (A) (A) (A) (A) (A) (A) (A) (A) (A) (A) (A)
                 (A) (A) (A) (A) (A) (A) (A) (A) (A) (A) (A) (A)
                 (A) (A) (A) (A) (A) (A) (A) (A) (A) (A) (A) (A)
                 (A) (A) (A) (A) (A) (A) (A) (A) (A) (A) (A) (A)
                 (A) (A) (A) (A) (A) (A) (A) (A) (A) (A) (A) (A)
                 (A) (A) (A) (A) (A) (A) (A) (A) (A) (A) (A) (A)
                 (A) (A) (A) (A) (A) (A) (A) (A) (A) (A) (A) (A)
                 (A) (A) (A) (A) (A) (A) (A) (A) (A) (A) (A) (A)
                 (A) (A) (A) (A) (A) (A) (A) (A) (A) (A) (A) (A)
                 (A) (A) (A) (A) (A) (A) (A) (A) (A) (A) (A) (A)
                 (A) (A) (A) (A) (A) (A) (A) (A) (A) (A) (A) (A)
                 (A) (A) (A) (A) (A) (A) (A) (A) (A) (A) (A) (A)
                 (A) (A) (A) (A) (A) (A) (A) (A) (A) (A) (A) (A)
                 (A) (A) (A) (A) (A) (A) (A) (A) (A) (A) (A) (A)
                 (A) (A) (A) (A) (A) (A) (A) (A) (A) (A) (A) (A)
                 (A) (A) (A) (A) (A) (A) (A) (A) (A) (A) (A) (A)
                 (A) (A) (A) (A) (A) (A) (A) (A) (A) (A) (A) (A)
                 (A) (A) (A) (A) (A) (A) (A) (A) (A) (A) (A) (A)
                 (A) (A) (A) (A) (A) (A) (A) (A) (A) (A) (A) (A)
                 (A) (A) (A) (A) (A) (A) (A) (A) (A) (A) (A) (A)
                 (A) (A) (A) (A) (A) (A) (A) (A) (A) (A) (A) (A)
                 (A) (A) (A) (A) (A) (A) (A) (A) (A) (A) (A) (A)
                 (A) (A) (A) (A) (A) (A) (A) (A) (A) (A) (A) (A)
                 (A) (A) (A) (A) (A) (A) (A) (A) (A) (A) (A) (A)
                 (A) (A) (A) (A) (A) (A) (A) (A) (A) (A) (A) (A)
                 (A) (A) (A) (A) (A) (A) (A) (A) (A) (A) (A) (A)
                 (A) (A) (A) (A) (A) (A) (A) (A) (A) (A) (A) (A)
                 (A) (A) (A) (A) (A) (A) (A) (A) (A) (A) (A) (A)
                 (A) (A) (A) (A) (A) (A) (A) (A) (A) (A) (A) (A)
                 (A) (A) (A) (A) (A) (A) (A) (A) (A) (A) (A) (A)
                 (A) (A) (A) (A) (A) (A) (A) (A) (A) (A) (A) (A)
                 (A) (A) (A) (A) (A) (A) (A) (A) (A) (A) (A) (A)
                 (A) (A) (A) (A) (A) (A) (A) (A) (A) (A) (A) (A)
                 (A) (A) (A) (A) (A) (A) (A) (A) (A) (A) (A) (A)
                 (A) (A) (A) (A) (A) (A) (A) (A) (A) (A) (A) (A)
                 (A) (A) (A) (A) (A) (A) (A) (A) (A) (A) (A) (A)
                 (A) (A) (A) (A) (A) (A) (A) (A) (A) (A) (A) (A)
                 (A) (A) (A) (A) (A) (A) (A) (A) (A) (A) (A) (A)
                 (A) (A) (A) (A) (A) (A) (A) (A) (A) (A) (A) (A)
                 (A) (A) (A) (A) (A) (A) (A) (A) (A) (A) (A) (A)
                 (A) (A) (A) (A) (A) (A) (A) (A) (A) (A) (A) (A)
                 (A) (A) (A) (A) (A) (A) (A) (A) (A) (A) (A) (A)
                 (A) (A) (A) (A) (A) (A) (A) (A) (A) (A) (A) (A)
                 (A) (A) (A) (A) (A) (A) (A) (A) (A) (A) (A) (A)
                 (A) (A) (A) (A) (A) (A) (A) (A) (A) (A) (A) (A)
                 (A) (A) (A) (A) (A) (A) (A) (A) (A) (A) (A) (A)
                 (A) (A) (A) (A) (A) (A) (A) (A) (A) (A) (A) (A)
                 (A) (A) (A) (A) (A) (A) (A) (A) (A) (A) (A) (A)
                 (A) (A) (A) (A) (A) (A) (A) (A) (A) (A) (A) (A)
                 (A) (A) (A) (A) (A) (A) (A) (A) (A) (A) (A) (A)
                 (A) (A) (A) (A) (A) (A) (A) (A) (A) (A) (A) (A)
                 (A) (A) (A) (A) (A) (A) (A) (A) (A) (A) (A) (A)
                 (A) (A) (A) (A) (A) (A) (A) (A) (A) (A) (A) (A)
                 (A) (A) (A) (A) (A) (A) (A) (A) (A) (A) (A) (A)
                 (A) (A) (A) (A) (A) (A) (A) (A) (A) (A) (A) (A)
                 (A) (A) (A) (A) (A) (A) (A) (A) (A) (A) (A) (A)
                 (A) (A) (A) (A) (A) (A) (A) (A) (A) (A) (A) (A)
                 (A) (A) (A) (A) (A) (A) (A) (A) (A) (A) (A) (A)
                 (A) (A) (A) (A) (A) (A) (A) (A) (A) (A) (A) (A)
                 (A) (A) (A) (A) (A) (A) (A) (A) (A) (A) (A) (A)
                 (A) (A) (A) (A) (A) (A) (A) (A) (A) (A) (A) (A)
                 (A) (A) (A) (A) (A) (A) (A) (A) (A) (A) (A) (A)
                 (A) (A) (A) (A) (A) (A) (A) (A) (A) (A) (A) (A)
                 (A) (A) (A) (A) (A) (A) (A) (A) (A) (A) (A) (A)
                 (A) (A) (A) (A) (A) (A) (A) (A) (A) (A) (A) (A)
                 (A) (A) (A) (A) (A) (A) (A) (A) (A) (A) (A) (A)
                 (A) (A) (A) (A) (A) (A) (A) (A) (A) (A) (A) (A)
                 (A) (A) (A) (A) (A) (A) (A) (A) (A) (A) (A) (A)
                 (A) (A) (A) (A) (A) (A) (A) (A) (A) (A) (A) (A)
                 (A) (A) (A) (A) (A) (A) (A) (A) (A) (A) (A) (A)
                 (A) (A) (A) (A) (A) (A) (A) (A) (A) (A) (A) (A)
                 (A) (A) (A) (A) (A) (A) (A) (A) (A) (A) (A) (A)
                 (A) (A) (A) (A) (A) (A) (A) (A) (A) (A) (A) (A)
                 (A) (A) (A) (A) (A) (A) (A) (A) (A) (A) (A) (A)
                 (A) (A) (A) (A) (A) (A) (A) (A) (A) (A) (A) (A)
                 (A) (A) (A) (A) (A) (A) (A) (A) (A) (A) (A) (A)
                 (A) (A) (A) (A) (A) (A) (A) (A) (A) (A) (A) (A)
                 (A) (A) (A) (A) (A) (A) (A) (A) (A) (A) (A) (A)
                 (A) (A) (A) (A) (A) (A) (A) (A) (A) (A) (A) (A)
                 (A) (A) (A) (A) (A) (A) (A) (A) (A) (A) (A) (A)
                 (A) (A) (A) (A) (A) (A) (A) (A) (A) (A) (A) (A)
                 (A) (A) (A) (A) (A) (A) (A) (A) (A) (A) (A) (A)
                 (A) (A) (A) (A) (A) (A) (A) (A) (A) (A) (A) (A)
                 (A) (A) (A) (A) (A) (A) (A) (A) (A) (A) (A) (A)
                 (A) (A) (A) (A) (A) (A) (A) (A) (A) (A) (A) (A)
                 (A) (A) (A) (A) (A) (A) (A) (A) (A) (A) (A) (A)
                 (A) (A) (A) (A) (A) (A) (A) (A) (A) (A) (A) (A)
                 (A) (A) (A) (A) (A) (A) (A) (A) (A) (A) (A) (A)
                 (A) (A) (A) (A) (A) (A) (A) (A) (A) (A) (A) (A)
                 (A) (A) (A) (A) (A) (A) (A) (A) (A) (A) (A) (A)
                 (A) (A) (A) (A) (A) (A) (A) (A) (A) (A) (A) (A)
                 (A) (A) (A) (A) (A) (A) (A) (A) (A) (A) (A) (A)
                 (A) (A) (A) (A) (A) (A) (A) (A) (A) (A) (A) (A)
                 (A) (A) (A) (A) (A) (A) (A) (A)
    40 initial guesses have been made.
 Convergence on wavefunction:    0.001000000000000
 Iteration     1 Dimension    40 NMult     0 NNew     40
 CISAX will form    40 AO SS matrices at one time.
 New state      2 was old state      3
 New state      3 was old state      4
 New state      4 was old state      2
 New state      5 was old state      6
 New state      6 was old state      8
 New state      7 was old state      5
 New state      8 was old state     18
 New state      9 was old state     17
 New state     10 was old state      9
 Iteration     2 Dimension    60 NMult    40 NNew     20
 New state      5 was old state      6
 New state      6 was old state      5
 New state      7 was old state      8
 New state      8 was old state     10
 New state      9 was old state      7
 New state     10 was old state      9
 Iteration     3 Dimension    80 NMult    60 NNew     20
 Iteration     4 Dimension   100 NMult    80 NNew     20
 No map to state     10
 Iteration     5 Dimension   120 NMult   100 NNew     20
 Iteration     6 Dimension   136 NMult   120 NNew     16
 Iteration     7 Dimension   146 NMult   136 NNew     10
 Iteration     8 Dimension   152 NMult   146 NNew      6
 Iteration     9 Dimension   158 NMult   152 NNew      6
 Iteration    10 Dimension   162 NMult   158 NNew      4
 Iteration    11 Dimension   166 NMult   162 NNew      4
 Iteration    12 Dimension   168 NMult   166 NNew      2
 Iteration    13 Dimension   170 NMult   168 NNew      2
 Iteration    14 Dimension   172 NMult   170 NNew      2
 ***********************************************************************
 Excited states from <AA,BB:AA,BB> singles matrix:
 ***********************************************************************
 
 Ground to excited state transition densities written to RWF  633
 Ground to excited state transition electric dipole moments (Au):
       state          X           Y           Z        Dip. S.      Osc.
         1        -5.8626     -0.0977      0.4336     34.5672      2.0300
         2         1.6987      0.5422     -1.2775      4.8118      0.3475
         3        -0.6865      0.0351     -0.0033      0.4726      0.0376
         4        -0.5620     -0.1714      0.5210      0.6167      0.0570
         5        -1.3207      0.2320     -0.4096      1.9658      0.1853
         6        -0.0025      0.2909     -0.4589      0.2952      0.0292
         7        -0.3284      2.8046      0.3188      8.0750      0.8093
         8        -2.2653     -0.2090     -0.5040      5.4295      0.5554
         9         0.4838      0.8100     -0.1199      0.9045      0.0940
        10        -0.7813     -0.1582      0.4583      0.8455      0.0901
 Ground to excited state transition velocity dipole moments (Au):
       state          X           Y           Z        Dip. S.      Osc.
         1         0.5134      0.0077     -0.0375      0.2651      2.0060
         2        -0.1765     -0.0587      0.1375      0.0535      0.3292
         3         0.0759     -0.0042      0.0007      0.0058      0.0322
         4         0.0770      0.0245     -0.0728      0.0118      0.0569
         5         0.1848     -0.0342      0.0579      0.0387      0.1824
         6         0.0006     -0.0441      0.0694      0.0068      0.0304
         7         0.0491     -0.4196     -0.0510      0.1810      0.8028
         8         0.3445      0.0336      0.0768      0.1257      0.5463
         9        -0.0780     -0.1283      0.0314      0.0235      0.1007
        10         0.1265      0.0260     -0.0745      0.0222      0.0927
 Ground to excited state transition magnetic dipole moments (Au):
       state          X           Y           Z
         1         0.0786      2.1494      0.7892
         2         0.0640     -2.8095     -1.0907
         3         0.0900      0.6818      0.2587
         4         0.0121      2.0550      0.6868
         5         0.1211     -0.4680     -0.0259
         6         0.0097     -1.4923     -0.3805
         7        -0.3455     -0.4953      4.7167
         8         0.4126      1.1928     -0.6289
         9         0.1070      0.6314      0.4086
        10        -0.0974      1.8173      0.6345
 Ground to excited state transition velocity quadrupole moments (Au):
       state          XX          YY          ZZ          XY          XZ          YZ
         1         8.8179     -0.6439      0.1815      0.4242     -1.2211     -0.1062
         2       -13.8102     -0.3606     -0.0870     -0.9823      2.6901     -0.0919
         3        -0.1841     -0.5349      0.2203      0.4294     -1.0425     -0.1878
         4         6.3780     -0.0805      0.4833      1.0030     -2.7323     -0.1924
         5        -3.2436     -0.9778     -0.2322     -0.3100      1.2366     -0.0403
         6        -5.5100     -0.1370     -0.1924     -0.3507      1.9121      0.0625
         7        -0.1937     -1.2580      0.3501      8.0458      0.5847      0.5299
         8        -4.6786     -2.5684      0.3396     -0.9042     -1.5426     -0.6488
         9         1.7830      0.3247     -0.0140      2.4593     -0.3369      0.3529
        10         6.1023      0.2484      0.5153      0.7035     -2.0267     -0.1556
 <0|del|b> * <b|rxdel|0> + <0|del|b> * <b|delr+rdel|0>
 Rotatory Strengths (R) in cgs (10**-40 erg-esu-cm/Gauss)
       state          XX          YY          ZZ    R(velocity)    E-M Angle
         1       -78.4355   -111.9043    409.5435     73.0679       88.67
         2       122.4793    -32.5793    -66.9189      7.6604       89.71
         3       -19.9663    -22.3247     66.9019      8.2036       85.73
         4       -14.4726     23.2612     -2.1417      2.2156       89.68
         5        97.2935     78.5323      8.7799     61.5352       67.19
         6       236.9512     -4.8463    -44.2223     62.6275       71.89
         7      -466.0674    420.8443   -189.2516    -78.1582       91.41
         8       -59.3264   -138.7583    815.5760    205.8304       74.46
         9       -77.8477   -227.2373    -42.2460   -115.7770      131.07
        10         0.4746    -59.4556      4.2687    -18.2375       92.47
 1/2[<0|r|b>*<b|rxdel|0> + (<0|rxdel|b>*<b|r|0>)*]
 Rotatory Strengths (R) in cgs (10**-40 erg-esu-cm/Gauss)
       state          XX          YY          ZZ     R(length)
         1       325.7875    148.5494   -241.9871     77.4499
         2       -76.8515   1077.1786   -985.3451      4.9940
         3        43.7171    -16.9199      0.6046      9.1339
         4         4.7964    249.0500   -253.0565      0.2633
         5       113.1180     76.7864     -7.4967     60.8026
         6         0.0169    306.9661   -123.4772     61.1686
         7       -80.2551    982.3320  -1063.2299    -53.7177
         8       660.9971    176.2801   -224.1567    204.3735
         9       -36.6146   -361.6390     34.6557   -121.1993
        10       -53.8143    203.2968   -205.6119    -18.7098
  1/2[<0|del|b>*<b|r|0> + (<0|r|b>*<b|del|0>)*] (Au)
       state          X           Y           Z        Dip. S.   Osc.(frdel)
         1        -3.0099     -0.0008     -0.0163      3.0270      2.0180
         2        -0.2998     -0.0318     -0.1757      0.5073      0.3382
         3        -0.0521     -0.0001     -0.0000      0.0522      0.0348
         4        -0.0433     -0.0042     -0.0379      0.0854      0.0569
         5        -0.2440     -0.0079     -0.0237      0.2757      0.1838
         6        -0.0000     -0.0128     -0.0319      0.0447      0.0298
         7        -0.0161     -1.1767     -0.0163      1.2091      0.8060
         8        -0.7804     -0.0070     -0.0387      0.8262      0.5508
         9        -0.0377     -0.1040     -0.0038      0.1454      0.0970
        10        -0.0989     -0.0041     -0.0341      0.1371      0.0914

 Excitation energies and oscillator strengths:
 
 Excited State   1:      Singlet-A      2.3971 eV  517.24 nm  f=2.0300  <S**2>=0.000
     264 -> 270        0.12675
     265 -> 270        0.10307
     267 -> 269       -0.36816
     268 -> 269        0.47356
     268 -> 270        0.29011
 This state for optimization and/or second-order correction.
 Total Energy, E(TD-HF/TD-DFT) =  -4216.15130406    
 Copying the excited state density for this state as the 1-particle RhoCI density.
 
 Excited State   2:      Singlet-A      2.9479 eV  420.59 nm  f=0.3475  <S**2>=0.000
     264 -> 269        0.13840
     265 -> 269        0.16774
     267 -> 269        0.38823
     267 -> 270       -0.18304
     267 -> 271       -0.10756
     268 -> 270        0.46221
     268 -> 271        0.13605
 
 Excited State   3:      Singlet-A      3.2489 eV  381.62 nm  f=0.0376  <S**2>=0.000
     267 -> 269        0.29246
     267 -> 270        0.49416
     268 -> 269        0.34367
 
 Excited State   4:      Singlet-A      3.7698 eV  328.89 nm  f=0.0570  <S**2>=0.000
     264 -> 269       -0.20059
     265 -> 269       -0.11265
     265 -> 270        0.12451
     267 -> 269       -0.18145
     267 -> 270        0.33620
     268 -> 269       -0.31500
     268 -> 270        0.32438
     268 -> 271        0.18538
 
 Excited State   5:      Singlet-A      3.8467 eV  322.31 nm  f=0.1853  <S**2>=0.000
     264 -> 270       -0.14820
     267 -> 271        0.40279
     268 -> 269       -0.16037
     268 -> 270        0.21603
     268 -> 271       -0.37516
     268 -> 272        0.17832
 
 Excited State   6:      Singlet-A      4.0312 eV  307.56 nm  f=0.0292  <S**2>=0.000
     259 -> 270        0.16354
     264 -> 269        0.37903
     264 -> 270        0.10836
     265 -> 269        0.34659
     265 -> 270        0.18816
     266 -> 269        0.13018
     267 -> 269       -0.17258
     267 -> 270        0.16601
     268 -> 269       -0.16511
 
 Excited State   7:      Singlet-A      4.0909 eV  303.07 nm  f=0.8093  <S**2>=0.000
     267 -> 272        0.14209
     267 -> 273        0.23630
     268 -> 272        0.35314
     268 -> 273        0.46522
 
 Excited State   8:      Singlet-A      4.1750 eV  296.97 nm  f=0.5554  <S**2>=0.000
     267 -> 271       -0.20914
     268 -> 272        0.42102
     268 -> 273       -0.32257
     268 -> 275        0.13805
     268 -> 276       -0.12507
 
 Excited State   9:      Singlet-A      4.2414 eV  292.32 nm  f=0.0940  <S**2>=0.000
     267 -> 275        0.19841
     268 -> 273        0.10657
     268 -> 275        0.53030
     268 -> 276        0.20433
 
 Excited State  10:      Singlet-A      4.3489 eV  285.10 nm  f=0.0901  <S**2>=0.000
     259 -> 269        0.24757
     263 -> 269       -0.10041
     264 -> 269       -0.18447
     264 -> 270        0.15247
     265 -> 270        0.16265
     266 -> 269        0.40294
     266 -> 270        0.25366
     267 -> 270       -0.14674
     268 -> 271       -0.10260
 SavETr:  write IOETrn=   770 NScale= 10 NData=  16 NLR=1 NState=   10 LETran=     190.
 Hyperfine terms turned off by default for NAtoms > 100.

 **********************************************************************

            Population analysis using the SCF Density.

 **********************************************************************

 Orbital symmetries:
       Occupied  (A) (A) (A) (A) (A) (A) (A) (A) (A) (A) (A) (A)
                 (A) (A) (A) (A) (A) (A) (A) (A) (A) (A) (A) (A)
                 (A) (A) (A) (A) (A) (A) (A) (A) (A) (A) (A) (A)
                 (A) (A) (A) (A) (A) (A) (A) (A) (A) (A) (A) (A)
                 (A) (A) (A) (A) (A) (A) (A) (A) (A) (A) (A) (A)
                 (A) (A) (A) (A) (A) (A) (A) (A) (A) (A) (A) (A)
                 (A) (A) (A) (A) (A) (A) (A) (A) (A) (A) (A) (A)
                 (A) (A) (A) (A) (A) (A) (A) (A) (A) (A) (A) (A)
                 (A) (A) (A) (A) (A) (A) (A) (A) (A) (A) (A) (A)
                 (A) (A) (A) (A) (A) (A) (A) (A) (A) (A) (A) (A)
                 (A) (A) (A) (A) (A) (A) (A) (A) (A) (A) (A) (A)
                 (A) (A) (A) (A) (A) (A) (A) (A) (A) (A) (A) (A)
                 (A) (A) (A) (A) (A) (A) (A) (A) (A) (A) (A) (A)
                 (A) (A) (A) (A) (A) (A) (A) (A) (A) (A) (A) (A)
                 (A) (A) (A) (A) (A) (A) (A) (A) (A) (A) (A) (A)
                 (A) (A) (A) (A) (A) (A) (A) (A) (A) (A) (A) (A)
                 (A) (A) (A) (A) (A) (A) (A) (A) (A) (A) (A) (A)
                 (A) (A) (A) (A) (A) (A) (A) (A) (A) (A) (A) (A)
                 (A) (A) (A) (A) (A) (A) (A) (A) (A) (A) (A) (A)
                 (A) (A) (A) (A) (A) (A) (A) (A) (A) (A) (A) (A)
                 (A) (A) (A) (A) (A) (A) (A) (A) (A) (A) (A) (A)
                 (A) (A) (A) (A) (A) (A) (A) (A) (A) (A) (A) (A)
                 (A) (A) (A) (A)
       Virtual   (A) (A) (A) (A) (A) (A) (A) (A) (A) (A) (A) (A)
                 (A) (A) (A) (A) (A) (A) (A) (A) (A) (A) (A) (A)
                 (A) (A) (A) (A) (A) (A) (A) (A) (A) (A) (A) (A)
                 (A) (A) (A) (A) (A) (A) (A) (A) (A) (A) (A) (A)
                 (A) (A) (A) (A) (A) (A) (A) (A) (A) (A) (A) (A)
                 (A) (A) (A) (A) (A) (A) (A) (A) (A) (A) (A) (A)
                 (A) (A) (A) (A) (A) (A) (A) (A) (A) (A) (A) (A)
                 (A) (A) (A) (A) (A) (A) (A) (A) (A) (A) (A) (A)
                 (A) (A) (A) (A) (A) (A) (A) (A) (A) (A) (A) (A)
                 (A) (A) (A) (A) (A) (A) (A) (A) (A) (A) (A) (A)
                 (A) (A) (A) (A) (A) (A) (A) (A) (A) (A) (A) (A)
                 (A) (A) (A) (A) (A) (A) (A) (A) (A) (A) (A) (A)
                 (A) (A) (A) (A) (A) (A) (A) (A) (A) (A) (A) (A)
                 (A) (A) (A) (A) (A) (A) (A) (A) (A) (A) (A) (A)
                 (A) (A) (A) (A) (A) (A) (A) (A) (A) (A) (A) (A)
                 (A) (A) (A) (A) (A) (A) (A) (A) (A) (A) (A) (A)
                 (A) (A) (A) (A) (A) (A) (A) (A) (A) (A) (A) (A)
                 (A) (A) (A) (A) (A) (A) (A) (A) (A) (A) (A) (A)
                 (A) (A) (A) (A) (A) (A) (A) (A) (A) (A) (A) (A)
                 (A) (A) (A) (A) (A) (A) (A) (A) (A) (A) (A) (A)
                 (A) (A) (A) (A) (A) (A) (A) (A) (A) (A) (A) (A)
                 (A) (A) (A) (A) (A) (A) (A) (A) (A) (A) (A) (A)
                 (A) (A) (A) (A) (A) (A) (A) (A) (A) (A) (A) (A)
                 (A) (A) (A) (A) (A) (A) (A) (A) (A) (A) (A) (A)
                 (A) (A) (A) (A) (A) (A) (A) (A) (A) (A) (A) (A)
                 (A) (A) (A) (A) (A) (A) (A) (A) (A) (A) (A) (A)
                 (A) (A) (A) (A) (A) (A) (A) (A) (A) (A) (A) (A)
                 (A) (A) (A) (A) (A) (A) (A) (A) (A) (A) (A) (A)
                 (A) (A) (A) (A) (A) (A) (A) (A) (A) (A) (A) (A)
                 (A) (A) (A) (A) (A) (A) (A) (A) (A) (A) (A) (A)
                 (A) (A) (A) (A) (A) (A) (A) (A) (A) (A) (A) (A)
                 (A) (A) (A) (A) (A) (A) (A) (A) (A) (A) (A) (A)
                 (A) (A) (A) (A) (A) (A) (A) (A) (A) (A) (A) (A)
                 (A) (A) (A) (A) (A) (A) (A) (A) (A) (A) (A) (A)
                 (A) (A) (A) (A) (A) (A) (A) (A) (A) (A) (A) (A)
                 (A) (A) (A) (A) (A) (A) (A) (A) (A) (A) (A) (A)
                 (A) (A) (A) (A) (A) (A) (A) (A) (A) (A) (A) (A)
                 (A) (A) (A) (A) (A) (A) (A) (A) (A) (A) (A) (A)
                 (A) (A) (A) (A) (A) (A) (A) (A) (A) (A) (A) (A)
                 (A) (A) (A) (A) (A) (A) (A) (A) (A) (A) (A) (A)
                 (A) (A) (A) (A) (A) (A) (A) (A) (A) (A) (A) (A)
                 (A) (A) (A) (A) (A) (A) (A) (A) (A) (A) (A) (A)
                 (A) (A) (A) (A) (A) (A) (A) (A) (A) (A) (A) (A)
                 (A) (A) (A) (A) (A) (A) (A) (A) (A) (A) (A) (A)
                 (A) (A) (A) (A) (A) (A) (A) (A) (A) (A) (A) (A)
                 (A) (A) (A) (A) (A) (A) (A) (A) (A) (A) (A) (A)
                 (A) (A) (A) (A) (A) (A) (A) (A) (A) (A) (A) (A)
                 (A) (A) (A) (A) (A) (A) (A) (A) (A) (A) (A) (A)
                 (A) (A) (A) (A) (A) (A) (A) (A) (A) (A) (A) (A)
                 (A) (A) (A) (A) (A) (A) (A) (A) (A) (A) (A) (A)
                 (A) (A) (A) (A) (A) (A) (A) (A) (A) (A) (A) (A)
                 (A) (A) (A) (A) (A) (A) (A) (A) (A) (A) (A) (A)
                 (A) (A) (A) (A) (A) (A) (A) (A) (A) (A) (A) (A)
                 (A) (A) (A) (A) (A) (A) (A) (A) (A) (A) (A) (A)
                 (A) (A) (A) (A) (A) (A) (A) (A) (A) (A) (A) (A)
                 (A) (A) (A) (A) (A) (A) (A) (A) (A) (A) (A) (A)
                 (A) (A) (A) (A) (A) (A) (A) (A) (A) (A) (A) (A)
                 (A) (A) (A) (A) (A) (A) (A) (A) (A) (A) (A) (A)
                 (A) (A) (A) (A) (A) (A) (A) (A) (A) (A) (A) (A)
                 (A) (A) (A) (A) (A) (A) (A) (A) (A) (A) (A) (A)
                 (A) (A) (A) (A) (A) (A) (A) (A) (A) (A) (A) (A)
                 (A) (A) (A) (A) (A) (A) (A) (A) (A) (A) (A) (A)
                 (A) (A) (A) (A) (A) (A) (A) (A) (A) (A) (A) (A)
                 (A) (A) (A) (A) (A) (A) (A) (A) (A) (A) (A) (A)
                 (A) (A) (A) (A) (A) (A) (A) (A) (A) (A) (A) (A)
                 (A) (A) (A) (A) (A) (A) (A) (A) (A) (A) (A) (A)
                 (A) (A) (A) (A) (A) (A) (A) (A) (A) (A) (A) (A)
                 (A) (A) (A) (A) (A) (A) (A) (A) (A) (A) (A) (A)
                 (A) (A) (A) (A) (A) (A) (A) (A) (A) (A) (A) (A)
                 (A) (A) (A) (A) (A) (A) (A) (A) (A) (A) (A) (A)
                 (A) (A) (A) (A) (A) (A) (A) (A) (A) (A) (A) (A)
                 (A) (A) (A) (A) (A) (A) (A) (A) (A) (A) (A) (A)
                 (A) (A) (A) (A) (A) (A) (A) (A) (A) (A) (A) (A)
                 (A) (A) (A) (A) (A) (A) (A) (A) (A) (A) (A) (A)
                 (A) (A) (A) (A) (A) (A) (A) (A) (A) (A) (A) (A)
                 (A) (A) (A) (A) (A) (A) (A) (A) (A) (A) (A) (A)
                 (A) (A) (A) (A) (A) (A) (A) (A) (A) (A) (A) (A)
                 (A) (A) (A) (A) (A) (A) (A) (A) (A) (A) (A) (A)
                 (A) (A) (A) (A) (A) (A) (A) (A) (A) (A) (A) (A)
                 (A) (A) (A) (A) (A) (A) (A) (A) (A) (A) (A) (A)
                 (A) (A) (A) (A) (A) (A) (A) (A) (A) (A) (A) (A)
                 (A) (A) (A) (A) (A) (A) (A) (A) (A) (A) (A) (A)
                 (A) (A) (A) (A) (A) (A) (A) (A) (A) (A) (A) (A)
                 (A) (A) (A) (A) (A) (A) (A) (A) (A) (A) (A) (A)
                 (A) (A) (A) (A) (A) (A) (A) (A) (A) (A) (A) (A)
                 (A) (A) (A) (A) (A) (A) (A) (A) (A) (A) (A) (A)
                 (A) (A) (A) (A) (A) (A) (A) (A) (A) (A) (A) (A)
                 (A) (A) (A) (A) (A) (A) (A) (A) (A) (A) (A) (A)
                 (A) (A) (A) (A) (A) (A) (A) (A) (A) (A) (A) (A)
                 (A) (A) (A) (A) (A) (A) (A) (A) (A) (A) (A) (A)
                 (A) (A) (A) (A) (A) (A) (A) (A) (A) (A) (A) (A)
                 (A) (A) (A) (A) (A) (A) (A) (A) (A) (A) (A) (A)
                 (A) (A) (A) (A) (A) (A) (A) (A) (A) (A) (A) (A)
                 (A) (A) (A) (A) (A) (A) (A) (A) (A) (A) (A) (A)
                 (A) (A) (A) (A) (A) (A) (A) (A) (A) (A) (A) (A)
                 (A) (A) (A) (A) (A) (A) (A) (A) (A) (A) (A) (A)
                 (A) (A) (A) (A) (A) (A) (A) (A) (A) (A) (A) (A)
                 (A) (A) (A) (A) (A) (A) (A) (A) (A) (A) (A) (A)
                 (A) (A) (A) (A) (A) (A) (A) (A) (A) (A) (A) (A)
                 (A) (A) (A) (A) (A) (A) (A) (A) (A) (A) (A) (A)
                 (A) (A) (A) (A) (A) (A) (A) (A) (A) (A) (A) (A)
                 (A) (A) (A) (A) (A) (A) (A) (A) (A) (A) (A) (A)
                 (A) (A) (A) (A) (A) (A) (A) (A) (A) (A) (A) (A)
                 (A) (A) (A) (A) (A) (A) (A) (A) (A) (A) (A) (A)
                 (A) (A) (A) (A) (A) (A) (A) (A) (A) (A) (A) (A)
                 (A) (A) (A) (A) (A) (A) (A) (A) (A) (A) (A) (A)
                 (A) (A) (A) (A) (A) (A) (A) (A) (A) (A) (A) (A)
                 (A) (A) (A) (A) (A) (A) (A) (A) (A) (A) (A) (A)
                 (A) (A) (A) (A) (A) (A) (A) (A) (A) (A) (A) (A)
                 (A) (A) (A) (A) (A) (A) (A) (A) (A) (A) (A) (A)
                 (A) (A) (A) (A) (A) (A) (A) (A) (A) (A) (A) (A)
                 (A) (A) (A) (A) (A) (A) (A) (A) (A) (A) (A) (A)
                 (A) (A) (A) (A) (A) (A) (A) (A) (A) (A) (A) (A)
                 (A) (A) (A) (A) (A) (A) (A) (A)
 The electronic state is 1-A.
 Alpha  occ. eigenvalues --  -89.01520 -88.96554 -88.95903 -19.24272 -19.22672
 Alpha  occ. eigenvalues --  -19.22490 -19.22373 -19.20562 -19.18164 -14.42935
 Alpha  occ. eigenvalues --  -14.42882 -14.41461 -14.40702 -10.39435 -10.31666
 Alpha  occ. eigenvalues --  -10.31388 -10.31324 -10.31201 -10.31142 -10.30744
 Alpha  occ. eigenvalues --  -10.30668 -10.30647 -10.30592 -10.30540 -10.30390
 Alpha  occ. eigenvalues --  -10.30090 -10.30050 -10.29982 -10.29766 -10.29733
 Alpha  occ. eigenvalues --  -10.29440 -10.29407 -10.29068 -10.28919 -10.28907
 Alpha  occ. eigenvalues --  -10.28887 -10.28694 -10.28507 -10.28022 -10.27889
 Alpha  occ. eigenvalues --  -10.27617 -10.27265 -10.27219 -10.27167 -10.27080
 Alpha  occ. eigenvalues --  -10.26612 -10.26546 -10.26188 -10.25935 -10.25852
 Alpha  occ. eigenvalues --  -10.25655 -10.25418 -10.25298 -10.25245 -10.25126
 Alpha  occ. eigenvalues --  -10.25004 -10.24946 -10.24906 -10.24889 -10.24837
 Alpha  occ. eigenvalues --  -10.24834 -10.24747 -10.24607 -10.24568 -10.24520
 Alpha  occ. eigenvalues --  -10.24482 -10.24475 -10.24417 -10.24395 -10.24381
 Alpha  occ. eigenvalues --  -10.24333 -10.24276 -10.24114 -10.23589  -8.10049
 Alpha  occ. eigenvalues --   -8.05426  -8.04782  -6.06564  -6.05964  -6.05730
 Alpha  occ. eigenvalues --   -6.01830  -6.01443  -6.01195  -6.01067  -6.00807
 Alpha  occ. eigenvalues --   -6.00408  -1.19538  -1.15577  -1.15295  -1.15228
 Alpha  occ. eigenvalues --   -1.13392  -1.11704  -1.11171  -1.05236  -1.01669
 Alpha  occ. eigenvalues --   -1.01537  -0.98953  -0.98407  -0.97285  -0.96088
 Alpha  occ. eigenvalues --   -0.95355  -0.95064  -0.94126  -0.93472  -0.93224
 Alpha  occ. eigenvalues --   -0.92350  -0.91786  -0.88398  -0.87697  -0.86848
 Alpha  occ. eigenvalues --   -0.86144  -0.85904  -0.85573  -0.84998  -0.84150
 Alpha  occ. eigenvalues --   -0.83910  -0.83427  -0.83111  -0.83071  -0.82864
 Alpha  occ. eigenvalues --   -0.82354  -0.82219  -0.81804  -0.80547  -0.79981
 Alpha  occ. eigenvalues --   -0.79053  -0.78233  -0.78221  -0.76591  -0.76420
 Alpha  occ. eigenvalues --   -0.75397  -0.73709  -0.72011  -0.71732  -0.71316
 Alpha  occ. eigenvalues --   -0.70733  -0.70665  -0.70206  -0.69656  -0.69424
 Alpha  occ. eigenvalues --   -0.69145  -0.68420  -0.68020  -0.67515  -0.67304
 Alpha  occ. eigenvalues --   -0.66860  -0.66168  -0.65856  -0.65007  -0.64417
 Alpha  occ. eigenvalues --   -0.63087  -0.62756  -0.62320  -0.61789  -0.61381
 Alpha  occ. eigenvalues --   -0.61067  -0.60764  -0.60548  -0.59251  -0.58603
 Alpha  occ. eigenvalues --   -0.58229  -0.57855  -0.57717  -0.56930  -0.56640
 Alpha  occ. eigenvalues --   -0.56516  -0.55916  -0.55612  -0.55335  -0.55264
 Alpha  occ. eigenvalues --   -0.55068  -0.54697  -0.54586  -0.54441  -0.54033
 Alpha  occ. eigenvalues --   -0.53732  -0.53727  -0.53109  -0.53011  -0.52778
 Alpha  occ. eigenvalues --   -0.52539  -0.52478  -0.52385  -0.52147  -0.52041
 Alpha  occ. eigenvalues --   -0.51753  -0.51444  -0.51357  -0.50988  -0.50866
 Alpha  occ. eigenvalues --   -0.50726  -0.50346  -0.50010  -0.49741  -0.49212
 Alpha  occ. eigenvalues --   -0.49062  -0.48906  -0.48889  -0.48816  -0.48617
 Alpha  occ. eigenvalues --   -0.48397  -0.47967  -0.47799  -0.47468  -0.47314
 Alpha  occ. eigenvalues --   -0.47112  -0.47027  -0.46292  -0.46250  -0.46145
 Alpha  occ. eigenvalues --   -0.46012  -0.45666  -0.45600  -0.45472  -0.45285
 Alpha  occ. eigenvalues --   -0.45191  -0.45051  -0.44768  -0.44392  -0.44245
 Alpha  occ. eigenvalues --   -0.44184  -0.43933  -0.43680  -0.43275  -0.43148
 Alpha  occ. eigenvalues --   -0.43067  -0.42770  -0.42592  -0.42340  -0.41871
 Alpha  occ. eigenvalues --   -0.41765  -0.41657  -0.41638  -0.41114  -0.40979
 Alpha  occ. eigenvalues --   -0.40751  -0.40285  -0.40211  -0.40050  -0.39994
 Alpha  occ. eigenvalues --   -0.39946  -0.39574  -0.38850  -0.38783  -0.38723
 Alpha  occ. eigenvalues --   -0.37643  -0.37224  -0.36634  -0.35490  -0.35468
 Alpha  occ. eigenvalues --   -0.34230  -0.34020  -0.33238  -0.32823  -0.32536
 Alpha  occ. eigenvalues --   -0.32489  -0.31856  -0.31826  -0.31456  -0.30840
 Alpha  occ. eigenvalues --   -0.30694  -0.30508  -0.29990  -0.28809  -0.27183
 Alpha  occ. eigenvalues --   -0.26114  -0.24151  -0.22517
 Alpha virt. eigenvalues --   -0.07732  -0.06151  -0.02109   0.00680   0.00916
 Alpha virt. eigenvalues --    0.01437   0.02141   0.02257   0.03537   0.03646
 Alpha virt. eigenvalues --    0.03901   0.04383   0.04467   0.04666   0.04693
 Alpha virt. eigenvalues --    0.05012   0.05430   0.05900   0.06649   0.06689
 Alpha virt. eigenvalues --    0.06786   0.07014   0.07583   0.07767   0.08054
 Alpha virt. eigenvalues --    0.08338   0.08495   0.08688   0.08942   0.09104
 Alpha virt. eigenvalues --    0.09411   0.09742   0.09949   0.10235   0.10408
 Alpha virt. eigenvalues --    0.10442   0.10746   0.11171   0.11419   0.11636
 Alpha virt. eigenvalues --    0.12120   0.12483   0.12547   0.12649   0.12759
 Alpha virt. eigenvalues --    0.12862   0.12945   0.13052   0.13292   0.13571
 Alpha virt. eigenvalues --    0.13848   0.13963   0.14532   0.14807   0.14923
 Alpha virt. eigenvalues --    0.15317   0.15611   0.15834   0.16022   0.16201
 Alpha virt. eigenvalues --    0.16274   0.16302   0.16634   0.16728   0.17053
 Alpha virt. eigenvalues --    0.17101   0.17373   0.17521   0.17825   0.18060
 Alpha virt. eigenvalues --    0.18202   0.18506   0.18607   0.18700   0.18847
 Alpha virt. eigenvalues --    0.19232   0.19413   0.19497   0.19822   0.20353
 Alpha virt. eigenvalues --    0.20442   0.20700   0.20755   0.20973   0.21056
 Alpha virt. eigenvalues --    0.21469   0.21780   0.22237   0.22573   0.22880
 Alpha virt. eigenvalues --    0.23056   0.23381   0.23427   0.23740   0.24006
 Alpha virt. eigenvalues --    0.24081   0.24687   0.25567   0.25962   0.26411
 Alpha virt. eigenvalues --    0.26555   0.26925   0.27484   0.28224   0.28406
 Alpha virt. eigenvalues --    0.28465   0.28494   0.28901   0.29089   0.29355
 Alpha virt. eigenvalues --    0.29805   0.29930   0.30513   0.30564   0.30777
 Alpha virt. eigenvalues --    0.31101   0.31628   0.31805   0.31969   0.32083
 Alpha virt. eigenvalues --    0.32314   0.32957   0.33272   0.33454   0.33628
 Alpha virt. eigenvalues --    0.33717   0.33971   0.34124   0.34204   0.34430
 Alpha virt. eigenvalues --    0.34663   0.34755   0.35133   0.35511   0.35552
 Alpha virt. eigenvalues --    0.35699   0.35764   0.36150   0.36273   0.36610
 Alpha virt. eigenvalues --    0.36675   0.36948   0.37463   0.37861   0.38024
 Alpha virt. eigenvalues --    0.38178   0.38620   0.38762   0.38963   0.39403
 Alpha virt. eigenvalues --    0.39418   0.39554   0.40035   0.40287   0.40551
 Alpha virt. eigenvalues --    0.40667   0.41296   0.41443   0.41700   0.41767
 Alpha virt. eigenvalues --    0.41935   0.42089   0.42211   0.42285   0.42301
 Alpha virt. eigenvalues --    0.42473   0.42697   0.42899   0.43059   0.43141
 Alpha virt. eigenvalues --    0.43459   0.43601   0.43854   0.43919   0.44058
 Alpha virt. eigenvalues --    0.44319   0.44587   0.44729   0.44889   0.44963
 Alpha virt. eigenvalues --    0.45072   0.45298   0.45492   0.45747   0.45856
 Alpha virt. eigenvalues --    0.46007   0.46081   0.46212   0.46332   0.46416
 Alpha virt. eigenvalues --    0.46608   0.46769   0.47091   0.47164   0.47332
 Alpha virt. eigenvalues --    0.47700   0.47712   0.47837   0.47976   0.48070
 Alpha virt. eigenvalues --    0.48236   0.48400   0.48487   0.48548   0.48611
 Alpha virt. eigenvalues --    0.48843   0.49030   0.49101   0.49379   0.49577
 Alpha virt. eigenvalues --    0.49661   0.49839   0.49940   0.50046   0.50140
 Alpha virt. eigenvalues --    0.50357   0.50461   0.50615   0.50691   0.50952
 Alpha virt. eigenvalues --    0.51271   0.51442   0.51723   0.52015   0.52211
 Alpha virt. eigenvalues --    0.52474   0.52749   0.52936   0.53081   0.53197
 Alpha virt. eigenvalues --    0.53224   0.53519   0.53685   0.53913   0.54075
 Alpha virt. eigenvalues --    0.54190   0.54437   0.54686   0.54791   0.54928
 Alpha virt. eigenvalues --    0.55057   0.55468   0.55627   0.55996   0.56061
 Alpha virt. eigenvalues --    0.56476   0.56518   0.56661   0.57021   0.57350
 Alpha virt. eigenvalues --    0.57651   0.58007   0.58194   0.58358   0.58418
 Alpha virt. eigenvalues --    0.58586   0.58676   0.58803   0.59005   0.59485
 Alpha virt. eigenvalues --    0.59654   0.59999   0.60134   0.60354   0.60694
 Alpha virt. eigenvalues --    0.60868   0.60938   0.61090   0.61143   0.61238
 Alpha virt. eigenvalues --    0.61440   0.61569   0.61770   0.61959   0.62173
 Alpha virt. eigenvalues --    0.62417   0.62626   0.62695   0.63100   0.63167
 Alpha virt. eigenvalues --    0.63256   0.63310   0.63465   0.63490   0.63733
 Alpha virt. eigenvalues --    0.63803   0.63981   0.64273   0.64507   0.64732
 Alpha virt. eigenvalues --    0.64813   0.64929   0.65055   0.65217   0.65349
 Alpha virt. eigenvalues --    0.65398   0.65848   0.65888   0.65990   0.66093
 Alpha virt. eigenvalues --    0.66339   0.66537   0.66670   0.66752   0.67103
 Alpha virt. eigenvalues --    0.67156   0.67221   0.67406   0.67696   0.67756
 Alpha virt. eigenvalues --    0.67865   0.68100   0.68185   0.68473   0.68479
 Alpha virt. eigenvalues --    0.68597   0.68859   0.69004   0.69205   0.69387
 Alpha virt. eigenvalues --    0.69433   0.69494   0.69744   0.69932   0.70029
 Alpha virt. eigenvalues --    0.70204   0.70286   0.70621   0.70954   0.71061
 Alpha virt. eigenvalues --    0.71223   0.71547   0.71751   0.71988   0.72394
 Alpha virt. eigenvalues --    0.72609   0.72737   0.72839   0.73307   0.73828
 Alpha virt. eigenvalues --    0.74454   0.74538   0.74576   0.75172   0.75383
 Alpha virt. eigenvalues --    0.75473   0.75638   0.75770   0.76181   0.76547
 Alpha virt. eigenvalues --    0.76674   0.77027   0.77376   0.78084   0.78174
 Alpha virt. eigenvalues --    0.78312   0.78454   0.78939   0.79243   0.79367
 Alpha virt. eigenvalues --    0.79795   0.80032   0.80231   0.80547   0.80609
 Alpha virt. eigenvalues --    0.80870   0.81099   0.81426   0.81667   0.81857
 Alpha virt. eigenvalues --    0.82254   0.82558   0.82757   0.83065   0.83526
 Alpha virt. eigenvalues --    0.83677   0.83832   0.84249   0.84424   0.84774
 Alpha virt. eigenvalues --    0.85026   0.85234   0.85670   0.85761   0.85913
 Alpha virt. eigenvalues --    0.86151   0.86539   0.86696   0.87065   0.87259
 Alpha virt. eigenvalues --    0.87490   0.87790   0.87973   0.88282   0.88351
 Alpha virt. eigenvalues --    0.88437   0.88630   0.88815   0.88930   0.89063
 Alpha virt. eigenvalues --    0.89258   0.89450   0.90042   0.90360   0.90446
 Alpha virt. eigenvalues --    0.90917   0.91021   0.91164   0.91496   0.92018
 Alpha virt. eigenvalues --    0.92273   0.92534   0.92627   0.92876   0.92964
 Alpha virt. eigenvalues --    0.93077   0.93331   0.94084   0.94142   0.94276
 Alpha virt. eigenvalues --    0.94359   0.94634   0.94685   0.94861   0.95184
 Alpha virt. eigenvalues --    0.95421   0.95777   0.95873   0.96098   0.96395
 Alpha virt. eigenvalues --    0.96915   0.97226   0.97489   0.97817   0.98010
 Alpha virt. eigenvalues --    0.98382   0.98688   0.98762   0.98928   0.99279
 Alpha virt. eigenvalues --    0.99590   1.00218   1.00262   1.00567   1.00897
 Alpha virt. eigenvalues --    1.01603   1.01694   1.02122   1.02398   1.02464
 Alpha virt. eigenvalues --    1.02753   1.02899   1.03199   1.03342   1.03569
 Alpha virt. eigenvalues --    1.03817   1.04495   1.04868   1.04915   1.05278
 Alpha virt. eigenvalues --    1.05422   1.05667   1.06051   1.06234   1.06725
 Alpha virt. eigenvalues --    1.06981   1.07250   1.07413   1.07614   1.07804
 Alpha virt. eigenvalues --    1.08044   1.08444   1.08667   1.08942   1.09163
 Alpha virt. eigenvalues --    1.09581   1.09738   1.09926   1.10129   1.10346
 Alpha virt. eigenvalues --    1.10577   1.10917   1.10934   1.11388   1.11756
 Alpha virt. eigenvalues --    1.11960   1.12615   1.12708   1.12937   1.13622
 Alpha virt. eigenvalues --    1.13641   1.14073   1.14235   1.14686   1.15052
 Alpha virt. eigenvalues --    1.15349   1.15701   1.16436   1.16624   1.16722
 Alpha virt. eigenvalues --    1.16805   1.16933   1.17379   1.17678   1.18021
 Alpha virt. eigenvalues --    1.18285   1.18544   1.19032   1.19294   1.19683
 Alpha virt. eigenvalues --    1.19863   1.19982   1.20592   1.20748   1.20880
 Alpha virt. eigenvalues --    1.21059   1.21407   1.21930   1.22342   1.22406
 Alpha virt. eigenvalues --    1.22931   1.23427   1.23471   1.24176   1.24285
 Alpha virt. eigenvalues --    1.24718   1.25071   1.25477   1.25649   1.26414
 Alpha virt. eigenvalues --    1.26837   1.27533   1.27818   1.28404   1.28599
 Alpha virt. eigenvalues --    1.29130   1.30148   1.30268   1.30565   1.31212
 Alpha virt. eigenvalues --    1.31577   1.32275   1.32597   1.33321   1.33535
 Alpha virt. eigenvalues --    1.34018   1.34440   1.35139   1.35520   1.36014
 Alpha virt. eigenvalues --    1.36097   1.36494   1.36749   1.36820   1.38037
 Alpha virt. eigenvalues --    1.38255   1.38638   1.39447   1.40317   1.41535
 Alpha virt. eigenvalues --    1.42285   1.42637   1.42897   1.43297   1.43412
 Alpha virt. eigenvalues --    1.43649   1.44063   1.44413   1.45343   1.45395
 Alpha virt. eigenvalues --    1.45818   1.46030   1.46155   1.46763   1.46910
 Alpha virt. eigenvalues --    1.47368   1.47590   1.47999   1.48279   1.48931
 Alpha virt. eigenvalues --    1.48965   1.49230   1.49306   1.49558   1.49921
 Alpha virt. eigenvalues --    1.50232   1.50341   1.50349   1.50566   1.50636
 Alpha virt. eigenvalues --    1.51053   1.51518   1.51861   1.51982   1.52249
 Alpha virt. eigenvalues --    1.52403   1.52413   1.52662   1.52758   1.52807
 Alpha virt. eigenvalues --    1.53019   1.53217   1.53457   1.53622   1.53710
 Alpha virt. eigenvalues --    1.54197   1.54320   1.54415   1.54789   1.55001
 Alpha virt. eigenvalues --    1.55269   1.55401   1.55732   1.55775   1.56168
 Alpha virt. eigenvalues --    1.56206   1.56406   1.56786   1.56951   1.57247
 Alpha virt. eigenvalues --    1.57571   1.58071   1.58535   1.58656   1.58750
 Alpha virt. eigenvalues --    1.59105   1.59599   1.59972   1.60322   1.60575
 Alpha virt. eigenvalues --    1.60963   1.61048   1.61148   1.61249   1.61576
 Alpha virt. eigenvalues --    1.61609   1.61960   1.62061   1.62345   1.62769
 Alpha virt. eigenvalues --    1.62997   1.63179   1.63578   1.63992   1.64086
 Alpha virt. eigenvalues --    1.64399   1.64527   1.64670   1.64737   1.65150
 Alpha virt. eigenvalues --    1.65210   1.65384   1.65740   1.65857   1.66066
 Alpha virt. eigenvalues --    1.66300   1.66531   1.66754   1.66835   1.66998
 Alpha virt. eigenvalues --    1.67493   1.67828   1.68361   1.68485   1.68878
 Alpha virt. eigenvalues --    1.69283   1.69702   1.70211   1.70467   1.70934
 Alpha virt. eigenvalues --    1.71046   1.71487   1.71896   1.72016   1.72288
 Alpha virt. eigenvalues --    1.72291   1.72495   1.72619   1.72956   1.73143
 Alpha virt. eigenvalues --    1.73328   1.73391   1.73690   1.73810   1.73880
 Alpha virt. eigenvalues --    1.73946   1.74203   1.74240   1.74524   1.74968
 Alpha virt. eigenvalues --    1.75628   1.75847   1.76217   1.76606   1.76772
 Alpha virt. eigenvalues --    1.76920   1.77460   1.77851   1.78095   1.78245
 Alpha virt. eigenvalues --    1.78731   1.79120   1.79347   1.79755   1.79961
 Alpha virt. eigenvalues --    1.80268   1.80640   1.80891   1.81187   1.81308
 Alpha virt. eigenvalues --    1.81457   1.81498   1.81881   1.81903   1.82133
 Alpha virt. eigenvalues --    1.82532   1.82899   1.82913   1.83073   1.83215
 Alpha virt. eigenvalues --    1.83284   1.83475   1.83982   1.84086   1.84729
 Alpha virt. eigenvalues --    1.85102   1.85436   1.85524   1.85919   1.86052
 Alpha virt. eigenvalues --    1.86317   1.86393   1.86898   1.86949   1.87263
 Alpha virt. eigenvalues --    1.87444   1.87892   1.88244   1.88649   1.89248
 Alpha virt. eigenvalues --    1.89380   1.91090   1.91953   1.92533   1.92641
 Alpha virt. eigenvalues --    1.92930   1.93568   1.93811   1.94152   1.94550
 Alpha virt. eigenvalues --    1.94689   1.94995   1.95371   1.95628   1.95634
 Alpha virt. eigenvalues --    1.96408   1.96632   1.96667   1.97039   1.97281
 Alpha virt. eigenvalues --    1.97476   1.97552   1.97898   1.98095   1.98178
 Alpha virt. eigenvalues --    1.98403   1.98571   1.98814   1.99264   1.99335
 Alpha virt. eigenvalues --    1.99389   1.99695   1.99961   2.00105   2.00655
 Alpha virt. eigenvalues --    2.00968   2.01127   2.01503   2.01713   2.01839
 Alpha virt. eigenvalues --    2.02090   2.02573   2.03057   2.03455   2.03578
 Alpha virt. eigenvalues --    2.03916   2.04056   2.04232   2.04320   2.04857
 Alpha virt. eigenvalues --    2.05145   2.05269   2.05342   2.05771   2.06033
 Alpha virt. eigenvalues --    2.06128   2.06630   2.06713   2.06991   2.07101
 Alpha virt. eigenvalues --    2.07336   2.07640   2.08299   2.08709   2.08984
 Alpha virt. eigenvalues --    2.09275   2.09908   2.10245   2.10648   2.10663
 Alpha virt. eigenvalues --    2.10977   2.11257   2.11346   2.11830   2.12037
 Alpha virt. eigenvalues --    2.12230   2.12938   2.13254   2.13556   2.13777
 Alpha virt. eigenvalues --    2.13899   2.14077   2.14514   2.14783   2.15344
 Alpha virt. eigenvalues --    2.15432   2.15759   2.15900   2.16114   2.16597
 Alpha virt. eigenvalues --    2.16794   2.16913   2.17361   2.17644   2.17986
 Alpha virt. eigenvalues --    2.18259   2.18537   2.18551   2.18781   2.19307
 Alpha virt. eigenvalues --    2.19760   2.20011   2.20069   2.20732   2.21206
 Alpha virt. eigenvalues --    2.21366   2.21882   2.22123   2.23078   2.23745
 Alpha virt. eigenvalues --    2.24071   2.24741   2.25555   2.25964   2.26185
 Alpha virt. eigenvalues --    2.26554   2.28385   2.28744   2.28954   2.29811
 Alpha virt. eigenvalues --    2.30636   2.30743   2.31224   2.31747   2.32672
 Alpha virt. eigenvalues --    2.33658   2.35003   2.35621   2.35848   2.36014
 Alpha virt. eigenvalues --    2.36382   2.37357   2.37726   2.37971   2.38155
 Alpha virt. eigenvalues --    2.38263   2.38358   2.38868   2.39008   2.39367
 Alpha virt. eigenvalues --    2.39999   2.40213   2.40483   2.40799   2.41342
 Alpha virt. eigenvalues --    2.41751   2.41896   2.42089   2.42545   2.42743
 Alpha virt. eigenvalues --    2.43181   2.43453   2.44001   2.45023   2.45344
 Alpha virt. eigenvalues --    2.45439   2.46077   2.46188   2.46322   2.46766
 Alpha virt. eigenvalues --    2.46828   2.46932   2.47286   2.47745   2.47842
 Alpha virt. eigenvalues --    2.48146   2.48605   2.48989   2.49236   2.49517
 Alpha virt. eigenvalues --    2.50045   2.50247   2.50807   2.51109   2.51456
 Alpha virt. eigenvalues --    2.52010   2.52033   2.52534   2.52967   2.53348
 Alpha virt. eigenvalues --    2.53804   2.54252   2.55305   2.55506   2.56068
 Alpha virt. eigenvalues --    2.56245   2.56476   2.56847   2.57575   2.57734
 Alpha virt. eigenvalues --    2.57904   2.58022   2.58134   2.58284   2.58459
 Alpha virt. eigenvalues --    2.59314   2.59595   2.60032   2.60247   2.60943
 Alpha virt. eigenvalues --    2.61210   2.62136   2.62495   2.62892   2.63512
 Alpha virt. eigenvalues --    2.63530   2.63887   2.64260   2.64365   2.64519
 Alpha virt. eigenvalues --    2.65050   2.65316   2.65643   2.65827   2.66117
 Alpha virt. eigenvalues --    2.67058   2.67485   2.67507   2.67944   2.68016
 Alpha virt. eigenvalues --    2.68261   2.68629   2.68788   2.68822   2.69171
 Alpha virt. eigenvalues --    2.69637   2.70049   2.70270   2.70387   2.70643
 Alpha virt. eigenvalues --    2.71048   2.71274   2.71413   2.71571   2.71861
 Alpha virt. eigenvalues --    2.72028   2.72451   2.72879   2.73068   2.73410
 Alpha virt. eigenvalues --    2.73655   2.73944   2.73965   2.74211   2.74354
 Alpha virt. eigenvalues --    2.74617   2.75044   2.75146   2.75252   2.75718
 Alpha virt. eigenvalues --    2.75901   2.76042   2.76131   2.76401   2.76802
 Alpha virt. eigenvalues --    2.76967   2.77462   2.77995   2.78224   2.78335
 Alpha virt. eigenvalues --    2.78479   2.78967   2.79515   2.79926   2.80384
 Alpha virt. eigenvalues --    2.80504   2.80783   2.80868   2.81057   2.81224
 Alpha virt. eigenvalues --    2.82199   2.82574   2.82733   2.82967   2.83321
 Alpha virt. eigenvalues --    2.83536   2.84186   2.84344   2.84830   2.85537
 Alpha virt. eigenvalues --    2.85905   2.86491   2.87026   2.87283   2.87721
 Alpha virt. eigenvalues --    2.88302   2.88669   2.88923   2.89335   2.89495
 Alpha virt. eigenvalues --    2.89765   2.90237   2.90722   2.91230   2.91405
 Alpha virt. eigenvalues --    2.91553   2.92007   2.92209   2.92975   2.93135
 Alpha virt. eigenvalues --    2.93482   2.93958   2.94273   2.94554   2.94787
 Alpha virt. eigenvalues --    2.95551   2.95651   2.96288   2.97203   2.97275
 Alpha virt. eigenvalues --    2.97445   2.97668   2.98307   2.98573   2.99012
 Alpha virt. eigenvalues --    2.99386   2.99581   2.99848   3.00272   3.00745
 Alpha virt. eigenvalues --    3.01039   3.01429   3.01672   3.01924   3.01963
 Alpha virt. eigenvalues --    3.02927   3.03625   3.04145   3.04586   3.04935
 Alpha virt. eigenvalues --    3.05402   3.05524   3.05900   3.06507   3.07128
 Alpha virt. eigenvalues --    3.09127   3.09621   3.09759   3.09922   3.10472
 Alpha virt. eigenvalues --    3.11475   3.11615   3.11753   3.11882   3.12183
 Alpha virt. eigenvalues --    3.12220   3.12483   3.13413   3.13768   3.14146
 Alpha virt. eigenvalues --    3.14464   3.15223   3.15780   3.16844   3.17651
 Alpha virt. eigenvalues --    3.18063   3.18342   3.19103   3.19533   3.20070
 Alpha virt. eigenvalues --    3.20430   3.21338   3.22703   3.24026   3.24351
 Alpha virt. eigenvalues --    3.24919   3.25060   3.25103   3.25994   3.26233
 Alpha virt. eigenvalues --    3.26705   3.27253   3.27520   3.27908   3.28195
 Alpha virt. eigenvalues --    3.28598   3.29659   3.30200   3.31505   3.31629
 Alpha virt. eigenvalues --    3.31953   3.32109   3.32571   3.33071   3.34473
 Alpha virt. eigenvalues --    3.35803   3.37479   3.38217   3.38656   3.38773
 Alpha virt. eigenvalues --    3.40217   3.40963   3.41335   3.42067   3.42529
 Alpha virt. eigenvalues --    3.43042   3.43119   3.43471   3.43868   3.44418
 Alpha virt. eigenvalues --    3.45241   3.45635   3.45845   3.46785   3.48401
 Alpha virt. eigenvalues --    3.48536   3.48963   3.49931   3.51288   3.51757
 Alpha virt. eigenvalues --    3.52403   3.54443   3.54680   3.55021   3.56730
 Alpha virt. eigenvalues --    3.57074   3.58211   3.58448   3.59691   3.60104
 Alpha virt. eigenvalues --    3.60280   3.61024   3.61528   3.61992   3.62510
 Alpha virt. eigenvalues --    3.62750   3.63180   3.64091   3.64527   3.66025
 Alpha virt. eigenvalues --    3.66160   3.66556   3.67427   3.68877   3.69079
 Alpha virt. eigenvalues --    3.70505   3.71274   3.73303   3.74061   3.78673
 Alpha virt. eigenvalues --    3.80429   3.81940   3.81986   3.82202   3.82229
 Alpha virt. eigenvalues --    3.82655   3.82910   3.83392   3.84241   3.84854
 Alpha virt. eigenvalues --    3.85904   3.86195   3.86753   3.86897   3.87944
 Alpha virt. eigenvalues --    3.88245   3.88357   3.89341   3.89675   3.90900
 Alpha virt. eigenvalues --    3.92990   3.93448   3.94177   3.94547   3.99543
 Alpha virt. eigenvalues --    4.00586   4.04664   4.05316   4.05549   4.05933
 Alpha virt. eigenvalues --    4.06423   4.07030   4.09706   4.10275   4.10962
 Alpha virt. eigenvalues --    4.11950   4.13348   4.13995   4.15091   4.16603
 Alpha virt. eigenvalues --    4.17569   4.17767   4.18462   4.19255   4.19501
 Alpha virt. eigenvalues --    4.20018   4.20271   4.20892   4.21754   4.22039
 Alpha virt. eigenvalues --    4.23526   4.24561   4.25125   4.25402   4.25451
 Alpha virt. eigenvalues --    4.26407   4.27053   4.27918   4.31421   4.35513
 Alpha virt. eigenvalues --    4.37670   4.47187   4.49500   4.54594   4.54772
 Alpha virt. eigenvalues --    4.59903   4.62878   4.67817   4.71263   4.78821
 Alpha virt. eigenvalues --    4.81360   4.85393   4.87870   4.89392   4.90144
 Alpha virt. eigenvalues --    4.90618   4.92087   4.93535   4.93715   4.96850
 Alpha virt. eigenvalues --    4.96894   4.97446   5.00639   5.10296   5.12421
 Alpha virt. eigenvalues --    5.17495   5.21279   5.33745   5.34573   5.35430
 Alpha virt. eigenvalues --    5.36377   5.39557   5.62948   5.79377   5.83852
 Alpha virt. eigenvalues --    5.84693   5.85720   5.87989   7.86178   7.87390
 Alpha virt. eigenvalues --    7.90795  17.20085  17.25091  17.27833  17.36687
 Alpha virt. eigenvalues --   17.39127  17.50113  17.57538  17.59276  17.62943
 Alpha virt. eigenvalues --   23.44843  23.50507  23.53110  23.54055  23.58970
 Alpha virt. eigenvalues --   23.66583  23.68223  23.69106  23.71633  23.77010
 Alpha virt. eigenvalues --   23.82463  23.82955  23.87510  23.90593  23.91499
 Alpha virt. eigenvalues --   23.91854  23.92135  23.92466  23.92612  23.93710
 Alpha virt. eigenvalues --   23.93867  23.94180  23.94308  23.96912  23.96973
 Alpha virt. eigenvalues --   23.97352  23.98160  23.98218  23.98675  23.99037
 Alpha virt. eigenvalues --   23.99353  23.99728  23.99947  24.00047  24.04395
 Alpha virt. eigenvalues --   24.06648  24.07788  24.08182  24.08508  24.09168
 Alpha virt. eigenvalues --   24.10930  24.11352  24.12170  24.12725  24.14853
 Alpha virt. eigenvalues --   24.15885  24.16458  24.17794  24.17810  24.18518
 Alpha virt. eigenvalues --   24.18655  24.18901  24.19149  24.19777  24.22356
 Alpha virt. eigenvalues --   24.23272  24.23460  24.24779  24.25185  24.25586
 Alpha virt. eigenvalues --   24.47857  35.53060  35.66030  35.71371  35.86412
 Alpha virt. eigenvalues --   49.89687  49.96289  49.96719  49.97876  49.99036
 Alpha virt. eigenvalues --   50.06286 188.90345 188.91287 188.94968
          Condensed to atoms (all electrons):
 Mulliken charges:
               1
     1  C   -0.262047
     2  C   -0.006440
     3  C   -0.184032
     4  C   -0.178281
     5  S    0.306562
     6  C   -0.293369
     7  C    0.042966
     8  C   -0.006542
     9  H    0.132164
    10  C    0.077915
    11  C   -0.100804
    12  C   -0.079592
    13  C   -0.004187
    14  C    0.089134
    15  N   -0.459478
    16  S    0.557583
    17  N   -0.495896
    18  C    0.124428
    19  C   -0.044557
    20  C   -0.032004
    21  C   -0.111862
    22  C    0.146021
    23  C   -0.109611
    24  C   -0.072425
    25  H    0.104139
    26  H    0.125281
    27  N   -0.496065
    28  C    0.082642
    29  C   -0.083718
    30  C   -0.047663
    31  C   -0.115920
    32  C   -0.076612
    33  C   -0.079763
    34  H    0.118715
    35  H    0.105545
    36  C   -0.035581
    37  C   -0.061095
    38  C   -0.095219
    39  C    0.172052
    40  C   -0.101923
    41  C    0.101811
    42  O   -0.378598
    43  C   -0.118676
    44  H    0.099940
    45  H    0.121196
    46  H    0.119788
    47  H    0.112806
    48  O   -0.342254
    49  C   -0.149063
    50  H    0.135506
    51  H    0.118599
    52  H    0.114313
    53  H    0.110363
    54  H    0.107739
    55  H    0.118208
    56  H    0.118388
    57  C    0.077205
    58  C   -0.085548
    59  C   -0.030664
    60  C   -0.037739
    61  C   -0.073932
    62  C   -0.080466
    63  H    0.116082
    64  H    0.106409
    65  C   -0.109683
    66  C    0.193217
    67  C   -0.186927
    68  C    0.165860
    69  C   -0.098919
    70  C   -0.064305
    71  H    0.105414
    72  H    0.107677
    73  O   -0.342609
    74  C   -0.149612
    75  H    0.113470
    76  H    0.136943
    77  H    0.113516
    78  H    0.125350
    79  O   -0.352294
    80  C   -0.148734
    81  H    0.112887
    82  H    0.115745
    83  H    0.137751
    84  H    0.101851
    85  H    0.112250
    86  H    0.126158
    87  H    0.115064
    88  H    0.110833
    89  H    0.113368
    90  S    0.322705
    91  C   -0.309704
    92  C    0.033665
    93  H    0.105202
    94  C    0.021500
    95  C   -0.043333
    96  C   -0.060084
    97  C   -0.113476
    98  C   -0.047187
    99  C   -0.099271
   100  H    0.119987
   101  H    0.137174
   102  C    0.063045
   103  C   -0.229762
   104  C   -0.023168
   105  N   -0.198889
   106  C    0.452384
   107  O   -0.306257
   108  O   -0.295678
   109  H    0.258618
   110  H    0.143277
   111  H    0.111652
   112  H    0.106375
   113  C   -0.222253
   114  H    0.126356
   115  H    0.110755
   116  H    0.118097
   117  C   -0.222229
   118  H    0.126162
   119  H    0.118069
   120  H    0.110127
 Sum of Mulliken charges =  -0.00000
 Mulliken charges with hydrogens summed into heavy atoms:
               1
     1  C   -0.262047
     2  C   -0.006440
     3  C   -0.184032
     4  C   -0.178281
     5  S    0.306562
     6  C   -0.293369
     7  C    0.175130
     8  C   -0.006542
    10  C    0.077915
    11  C    0.012564
    12  C    0.031241
    13  C   -0.004187
    14  C    0.089134
    15  N   -0.459478
    16  S    0.557583
    17  N   -0.495896
    18  C    0.124428
    19  C   -0.044557
    20  C    0.083060
    21  C    0.014296
    22  C    0.146021
    23  C    0.015670
    24  C    0.031714
    27  N   -0.496065
    28  C    0.082642
    29  C    0.034670
    30  C    0.070545
    31  C   -0.115920
    32  C    0.028934
    33  C    0.038952
    36  C   -0.035581
    37  C    0.046644
    38  C    0.015144
    39  C    0.172052
    40  C    0.010883
    41  C    0.101811
    42  O   -0.378598
    43  C    0.222248
    48  O   -0.342254
    49  C    0.219355
    57  C    0.077205
    58  C    0.026702
    59  C    0.071187
    60  C   -0.037739
    61  C    0.032477
    62  C    0.035616
    65  C   -0.109683
    66  C    0.193217
    67  C   -0.061577
    68  C    0.165860
    69  C    0.008758
    70  C    0.041109
    73  O   -0.342609
    74  C    0.214317
    79  O   -0.352294
    80  C    0.217649
    90  S    0.322705
    91  C   -0.309704
    92  C    0.138867
    94  C    0.021500
    95  C    0.063042
    96  C    0.051567
    97  C   -0.113476
    98  C    0.089986
    99  C    0.020716
   102  C    0.206322
   103  C   -0.229762
   104  C   -0.023168
   105  N   -0.198889
   106  C    0.452384
   107  O   -0.306257
   108  O   -0.037060
   113  C    0.132954
   117  C    0.132130
 Electronic spatial extent (au):  <R**2>=         204321.2804
 Charge=             -0.0000 electrons
 Dipole moment (field-independent basis, Debye):
    X=            -11.5802    Y=             -3.2335    Z=              5.8180  Tot=             13.3568
 Quadrupole moment (field-independent basis, Debye-Ang):
   XX=           -538.6496   YY=           -411.0755   ZZ=           -446.6775
   XY=             -1.8055   XZ=             24.7734   YZ=            -15.0555
 Traceless Quadrupole moment (field-independent basis, Debye-Ang):
   XX=            -73.1820   YY=             54.3920   ZZ=             18.7900
   XY=             -1.8055   XZ=             24.7734   YZ=            -15.0555
 Octapole moment (field-independent basis, Debye-Ang**2):
  XXX=          -5517.1431  YYY=           -147.3914  ZZZ=             94.6306  XYY=           -680.3035
  XXY=           -473.3098  XXZ=           1019.2435  XZZ=            -62.4879  YZZ=            -51.8131
  YYZ=             75.9335  XYZ=            104.6902
 Hexadecapole moment (field-independent basis, Debye-Ang**3):
 XXXX=        -307472.4024 YYYY=         -31939.7381 ZZZZ=          -9008.3219 XXXY=          -4071.1532
 XXXZ=           8126.1795 YYYX=           1335.8250 YYYZ=           -672.3529 ZZZX=            782.0126
 ZZZY=           -102.1500 XXYY=         -36937.3457 XXZZ=         -42021.9071 YYZZ=          -7601.3537
 XXYZ=          -1229.4443 YYXZ=           -470.1222 ZZXY=           -226.2518
 N-N= 1.002970077633D+04 E-N=-2.993534154502D+04  KE= 4.204181735590D+03
 1\1\GINC-CN113\SP\RCAM-B3LYP TD-FC\6-311G(d,p)\C61H46N4O6S3\R2532\04-J
 un-2021\0\\#N TD(NStates=10)CAM-B3lYP/6-311G(d,p)\\Name\\0,1\C,0,-7.54
 6561,1.28031,2.683097\C,0,-8.592842,0.800254,1.678459\C,0,-7.982348,0.
 250768,0.559527\C,0,-6.560027,0.312166,0.721275\S,0,-5.139569,-0.12657
 ,-0.154442\C,0,-4.110677,0.497597,1.154165\C,0,-4.886064,1.009111,2.18
 4047\C,0,-6.267212,0.903068,1.938473\H,0,-4.434723,1.436566,3.066072\C
 ,0,-2.66474,0.421969,1.036834\C,0,-2.033004,-0.180668,-0.038723\C,0,-0
 .630861,-0.259925,-0.188264\C,0,0.271476,0.24855,0.727084\C,0,-0.32530
 5,0.886039,1.870252\N,0,0.341718,1.432283,2.889414\S,0,-0.764611,2.009
 353,3.945696\N,0,-2.137532,1.584801,3.156203\C,0,-1.773595,0.971653,2.
 029089\C,0,1.727905,0.129793,0.534743\C,0,2.6277,1.12709,0.949407\C,0,
 3.989468,1.01524,0.716343\C,0,4.520458,-0.105162,0.056672\C,0,3.630876
 ,-1.111584,-0.353867\C,0,2.271351,-0.992571,-0.11446\H,0,1.61859,-1.79
 9849,-0.426\H,0,4.012512,-1.990779,-0.857038\N,0,5.905965,-0.218076,-0
 .183178\C,0,6.541714,-1.490986,-0.162595\C,0,7.452277,-1.849593,-1.164
 607\C,0,8.080003,-3.08788,-1.142777\C,0,7.814461,-4.022365,-0.129081\C
 ,0,6.902809,-3.649608,0.871239\C,0,6.281857,-2.406948,0.86377\H,0,5.59
 547,-2.138317,1.657746\H,0,6.698462,-4.333679,1.687379\C,0,8.431479,-5
 .372355,-0.123591\C,0,7.65544,-6.504999,0.184186\C,0,8.175336,-7.78766
 2,0.179345\C,0,9.520917,-7.991698,-0.146516\C,0,10.322163,-6.890794,-0
 .449187\C,0,9.78101,-5.603663,-0.436548\O,0,10.63086,-4.567494,-0.7725
 08\C,0,11.174607,-3.854858,0.341958\H,0,11.768846,-4.521873,0.977035\H
 ,0,11.818644,-3.079567,-0.07252\H,0,10.385781,-3.390238,0.941552\H,0,1
 1.366991,-6.989955,-0.708897\O,0,9.950727,-9.284025,-0.144623\C,0,11.3
 03899,-9.547345,-0.489284\H,0,11.419341,-10.628514,-0.434744\H,0,11.53
 1966,-9.209206,-1.506079\H,0,11.997205,-9.07373,0.214791\H,0,7.557214,
 -8.648199,0.402949\H,0,6.602998,-6.368378,0.405019\H,0,8.776499,-3.344
 012,-1.929784\H,0,7.660802,-1.152742,-1.967442\C,0,6.68419,0.938764,-0
 .477466\C,0,7.924033,1.137885,0.141914\C,0,8.692136,2.255911,-0.153082
 \C,0,8.25176,3.224345,-1.068286\C,0,7.002848,3.017724,-1.673254\C,0,6.
 234035,1.894297,-1.394612\H,0,5.276141,1.759105,-1.882366\H,0,6.622935
 ,3.753594,-2.37299\C,0,9.074355,4.404066,-1.438322\C,0,9.741533,5.2048
 12,-0.488005\C,0,10.490422,6.32069,-0.879745\C,0,10.589114,6.656541,-2
 .233187\C,0,9.938791,5.878317,-3.191525\C,0,9.200749,4.778553,-2.78303
 5\H,0,8.714408,4.166883,-3.534234\H,0,10.032331,6.144342,-4.236502\O,0
 ,11.299441,7.720324,-2.704903\C,0,11.985477,8.550716,-1.780708\H,0,12.
 745332,7.991399,-1.222891\H,0,12.473802,9.31926,-2.377619\H,0,11.29419
 1,9.027627,-1.076442\H,0,10.986088,6.922385,-0.134488\O,0,9.602716,4.8
 40751,0.820595\C,0,10.183472,5.647349,1.833286\H,0,11.275635,5.680701,
 1.748293\H,0,9.784755,6.667732,1.813423\H,0,9.912805,5.176009,2.776807
 \H,0,9.646101,2.386068,0.339831\H,0,8.285881,0.405206,0.853395\H,0,4.6
 54626,1.802552,1.047713\H,0,2.255914,1.998856,1.468874\H,0,-0.2525,-0.
 727024,-1.089395\H,0,-2.635999,-0.614377,-0.82843\S,0,-9.123789,-0.305
 543,-0.605419\C,0,-10.469575,0.212829,0.424075\C,0,-9.994005,0.777274,
 1.599899\H,0,-10.653402,1.174492,2.359953\C,0,-11.846087,0.026495,0.00
 2967\C,0,-12.911052,0.188287,0.91453\C,0,-14.2207,0.019765,0.513571\C,
 0,-14.553611,-0.327482,-0.814183\C,0,-13.488229,-0.495374,-1.72485\C,0
 ,-12.178791,-0.320031,-1.325168\H,0,-11.391855,-0.44104,-2.060468\H,0,
 -13.683793,-0.758683,-2.755101\C,0,-15.951965,-0.484358,-1.128773\C,0,
 -16.598111,-0.801101,-2.284978\C,0,-15.969472,-1.065192,-3.530449\N,0,
 -15.544201,-1.294906,-4.583914\C,0,-18.103574,-0.878389,-2.242749\O,0,
 -18.738018,-0.672509,-1.243038\O,0,-18.723307,-1.195286,-3.399137\H,0,
 -18.087752,-1.332222,-4.115879\H,0,-16.637229,-0.323158,-0.300363\H,0,
 -15.018492,0.148074,1.237166\H,0,-12.704703,0.430789,1.949174\C,0,-7.6
 37268,2.804247,2.911604\H,0,-7.558605,3.347206,1.967676\H,0,-8.589316,
 3.066421,3.381452\H,0,-6.831512,3.140233,3.569513\C,0,-7.660911,0.5242
 29,4.024198\H,0,-7.602613,-0.555306,3.871714\H,0,-6.853024,0.819794,4.
 698782\H,0,-8.611489,0.752222,4.514437\\Version=ES64L-G16RevB.01\State
 =1-A\HF=-4216.2393942\RMSD=4.269e-09\PG=C01 [X(C61H46N4O6S3)]\\@


 SUCCESS-- IF YOU HAVE TRIED TO DO SOMETHING AND FAILED
           YOU ARE BETTER OFF THAN IF YOU HAD TRIED TO DO
           NOTHING AND SUCCEEDED.

                   -- FROM THE BACK OF A SUGAR PACKET
 Job cpu time:       0 days 11 hours 14 minutes 23.3 seconds.
 Elapsed time:       0 days 11 hours 15 minutes 13.5 seconds.
 File lengths (MBytes):  RWF=  15980 Int=      0 D2E=      0 Chk=    995 Scr=      1
 Normal termination of Gaussian 16 at Fri Jun  4 20:24:11 2021.
