 Entering Gaussian System, Link 0=/usr/local/apps//g09/g09
 Input=mex.com
 Output=mex.out
 Initial command:
 /usr/local/apps//g09/l1.exe "/tmp/bnp.467115.sequoia/Gau-1144.inp" -scrdir="/tmp/bnp.467115.sequoia/"
 Entering Link 1 = /usr/local/apps//g09/l1.exe PID=      1145.
  
 Copyright (c) 1988,1990,1992,1993,1995,1998,2003,2009,2013,
            Gaussian, Inc.  All Rights Reserved.
  
 This is part of the Gaussian(R) 09 program.  It is based on
 the Gaussian(R) 03 system (copyright 2003, Gaussian, Inc.),
 the Gaussian(R) 98 system (copyright 1998, Gaussian, Inc.),
 the Gaussian(R) 94 system (copyright 1995, Gaussian, Inc.),
 the Gaussian 92(TM) system (copyright 1992, Gaussian, Inc.),
 the Gaussian 90(TM) system (copyright 1990, Gaussian, Inc.),
 the Gaussian 88(TM) system (copyright 1988, Gaussian, Inc.),
 the Gaussian 86(TM) system (copyright 1986, Carnegie Mellon
 University), and the Gaussian 82(TM) system (copyright 1983,
 Carnegie Mellon University). Gaussian is a federally registered
 trademark of Gaussian, Inc.
  
 This software contains proprietary and confidential information,
 including trade secrets, belonging to Gaussian, Inc.
  
 This software is provided under written license and may be
 used, copied, transmitted, or stored only in accord with that
 written license.
  
 The following legend is applicable only to US Government
 contracts under FAR:
  
                    RESTRICTED RIGHTS LEGEND
  
 Use, reproduction and disclosure by the US Government is
 subject to restrictions as set forth in subparagraphs (a)
 and (c) of the Commercial Computer Software - Restricted
 Rights clause in FAR 52.227-19.
  
 Gaussian, Inc.
 340 Quinnipiac St., Bldg. 40, Wallingford CT 06492
  
  
 ---------------------------------------------------------------
 Warning -- This program may not be used in any manner that
 competes with the business of Gaussian, Inc. or will provide
 assistance to any competitor of Gaussian, Inc.  The licensee
 of this program is prohibited from giving any competitor of
 Gaussian, Inc. access to this program.  By using this program,
 the user acknowledges that Gaussian, Inc. is engaged in the
 business of creating and licensing software in the field of
 computational chemistry and represents and warrants to the
 licensee that it is not a competitor of Gaussian, Inc. and that
 it will not use this program in any manner prohibited above.
 ---------------------------------------------------------------
  

 Cite this work as:
 Gaussian 09, Revision D.01,
 M. J. Frisch, G. W. Trucks, H. B. Schlegel, G. E. Scuseria, 
 M. A. Robb, J. R. Cheeseman, G. Scalmani, V. Barone, B. Mennucci, 
 G. A. Petersson, H. Nakatsuji, M. Caricato, X. Li, H. P. Hratchian, 
 A. F. Izmaylov, J. Bloino, G. Zheng, J. L. Sonnenberg, M. Hada, 
 M. Ehara, K. Toyota, R. Fukuda, J. Hasegawa, M. Ishida, T. Nakajima, 
 Y. Honda, O. Kitao, H. Nakai, T. Vreven, J. A. Montgomery, Jr., 
 J. E. Peralta, F. Ogliaro, M. Bearpark, J. J. Heyd, E. Brothers, 
 K. N. Kudin, V. N. Staroverov, T. Keith, R. Kobayashi, J. Normand, 
 K. Raghavachari, A. Rendell, J. C. Burant, S. S. Iyengar, J. Tomasi, 
 M. Cossi, N. Rega, J. M. Millam, M. Klene, J. E. Knox, J. B. Cross, 
 V. Bakken, C. Adamo, J. Jaramillo, R. Gomperts, R. E. Stratmann, 
 O. Yazyev, A. J. Austin, R. Cammi, C. Pomelli, J. W. Ochterski, 
 R. L. Martin, K. Morokuma, V. G. Zakrzewski, G. A. Voth, 
 P. Salvador, J. J. Dannenberg, S. Dapprich, A. D. Daniels, 
 O. Farkas, J. B. Foresman, J. V. Ortiz, J. Cioslowski, 
 and D. J. Fox, Gaussian, Inc., Wallingford CT, 2013.
 
 ******************************************
 Gaussian 09:  ES64L-G09RevD.01 24-Apr-2013
                14-May-2021 
 ******************************************
 %mem=8gb
 ------------------------
 #N B3LYP/6-311G(d,p) OPT
 ------------------------
 1/14=-1,18=20,19=15,26=3,38=1/1,3;
 2/9=110,12=2,17=6,18=5,40=1/2;
 3/5=4,6=6,7=101,11=2,16=1,25=1,30=1,71=1,74=-5/1,2,3;
 4//1;
 5/5=2,38=5/2;
 6/7=2,8=2,9=2,10=2,28=1/1;
 7//1,2,3,16;
 1/14=-1,18=20,19=15,26=3/3(2);
 2/9=110/2;
 99//99;
 2/9=110/2;
 3/5=4,6=6,7=101,11=2,16=1,25=1,30=1,71=1,74=-5/1,2,3;
 4/5=5,16=3,69=1/1;
 5/5=2,38=5/2;
 7//1,2,3,16;
 1/14=-1,18=20,19=15,26=3/3(-5);
 2/9=110/2;
 6/7=2,8=2,9=2,10=2,19=2,28=1/1;
 99/9=1/99;
 ------------
 C61H46O6N4S3
 ------------
 Symbolic Z-matrix:
 Charge =  0 Multiplicity = 1
 C                     0.        0.        0. 
 C                    -0.18951  -0.39783   1.44327 
 C                     0.45091  -1.50201   1.82823 
 C                     1.11319  -1.98957   0.77517 
 S                     1.97055  -3.10995   0.41905 
 C                     2.11093  -2.85061  -1.04128 
 C                     1.47016  -1.70127  -1.35071 
 C                     0.88252  -1.19469  -0.26791 
 H                     1.34313  -1.19825  -2.31842 
 C                     2.75064  -3.70351  -1.88679 
 C                     3.31397  -4.84813  -1.44154 
 C                     3.88157  -5.76292  -2.2428 
 C                     3.92299  -5.64008  -3.5835 
 C                     3.42813  -4.46739  -4.03753 
 N                     3.46912  -4.14104  -5.26183 
 S                     2.54795  -2.67879  -5.57767 
 N                     2.458    -2.5003   -3.82969 
 C                     2.8803   -3.53028  -3.22273 
 C                     4.39606  -6.65232  -4.35831 
 C                     3.98175  -6.84433  -5.62816 
 C                     4.36897  -7.89193  -6.37161 
 C                     5.23304  -8.81437  -5.91137 
 C                     5.67992  -8.6199   -4.65868 
 C                     5.26139  -7.58676  -3.90837 
 H                     5.69444  -7.54031  -2.8961 
 H                     6.38217  -9.34851  -4.21701 
 N                     5.60645  -9.92338  -6.66052 
 C                     6.94884  -10.25684  -6.80843 
 C                     7.35289  -11.51999  -7.02865 
 C                     8.6448   -11.84558  -7.19387 
 C                     9.65314  -10.94961  -7.15354 
 C                     9.23485  -9.69324  -6.88036 
 C                     7.9445   -9.35689  -6.718 
 H                     7.70527  -8.29353  -6.5433 
 H                     9.92647  -8.83726  -6.84104 
 C                     10.96622  -11.25836  -7.34888 
 C                     11.91937  -10.45767  -6.82167 
 C                     13.23336  -10.70038  -6.92055 
 C                     13.70712  -11.77957  -7.55966 
 C                     12.75874  -12.55947  -8.10597 
 C                     11.42986  -12.32207  -8.06088 
 O                     10.63505  -13.2419  -8.70411 
 C                     10.21981  -12.83155  -9.99492 
 H                     11.11116  -12.68882  -10.65116 
 H                     9.57354  -13.63253  -10.42483 
 H                     9.63275  -11.88473  -9.93297 
 H                     13.07244  -13.46002  -8.65667 
 O                     15.06509  -11.99025  -7.61473 
 C                     15.55282  -13.10608  -8.33559 
 H                     16.66647  -13.09381  -8.27187 
 H                     15.18735  -14.05374  -7.87334 
 H                     15.2639  -13.02929  -9.41104 
 H                     13.95291  -10.01351  -6.4404 
 H                     11.68481  -9.57257  -6.20984 
 H                     8.81598  -12.92461  -7.30457 
 H                     6.60878  -12.33533  -7.05049 
 C                     4.61077  -10.60876  -7.35097 
 C                     4.76272  -11.13415  -8.5799 
 C                     3.77207  -11.79171  -9.20583 
 C                     2.54847  -11.99012  -8.66994 
 C                     2.41609  -11.45892  -7.43447 
 C                     3.39609  -10.79322  -6.80461 
 H                     3.18472  -10.39471  -5.79639 
 H                     1.47066  -11.495   -6.87123 
 C                     1.53417  -12.66403  -9.28296 
 C                     1.41863  -12.83743  -10.62876 
 C                     0.35195  -13.52248  -11.09987 
 C                    -0.60912  -14.0898  -10.34911 
 C                    -0.46569  -13.90988  -9.02908 
 C                     0.56504  -13.22117  -8.52441 
 H                     0.57457  -13.19615  -7.42381 
 H                    -1.21346  -14.35272  -8.34739 
 O                    -1.69572  -14.79788  -10.80763 
 C                    -1.89273  -14.93212  -12.20221 
 H                    -1.04757  -15.49784  -12.66195 
 H                    -2.82885  -15.51915  -12.35549 
 H                    -2.02844  -13.92919  -12.67303 
 H                     0.25037  -13.63884  -12.18574 
 O                     2.31092  -12.24164  -11.49454 
 C                     1.9445   -11.99638  -12.84071 
 H                     1.91798  -12.94793  -13.42314 
 H                     0.97403  -11.44676  -12.88594 
 H                     2.73376  -11.34896  -13.29095 
 H                     4.06449  -12.21161  -10.17823 
 H                     5.72847  -11.0282  -9.10486 
 H                     3.94673  -7.99917  -7.38638 
 H                     3.22317  -6.20554  -6.1046 
 H                     4.2312   -6.67535  -1.73206 
 H                     3.30613  -5.13053  -0.37503 
 S                     0.20781  -1.81835   3.22913 
 C                    -0.74281  -0.71752   3.53505 
 C                    -0.9045    0.08266   2.45921 
 H                    -1.53743   0.97644   2.34819 
 C                    -1.36928  -0.57182   4.72767 
 C                    -2.23108   0.43691   4.96579 
 C                    -2.8772    0.57858   6.13452 
 C                    -2.71681  -0.27939   7.16219 
 C                    -1.84825  -1.27994   6.93425 
 C                    -1.20047  -1.41855   5.76529 
 H                    -0.52132  -2.28562   5.7015 
 H                    -1.62886  -2.04198   7.6937 
 C                    -3.42041  -0.0745    8.29868 
 C                    -3.46002  -0.76945   9.45481 
 C                    -2.76617  -1.85713   9.71664 
 N                    -2.19798  -2.8171    10.03354 
 C                    -4.27314  -0.35826   10.47596 
 O                    -4.96193   0.63549   10.35536 
 O                    -4.35017  -1.02766   11.65909 
 H                    -3.77753  -1.81108   11.64415 
 H                    -4.07543   0.81168   8.261 
 H                    -3.56594   1.4387    6.21924 
 H                    -2.4572    1.20001   4.20467 
 C                    -1.30748  -0.04601  -0.79375 
 H                    -1.83062  -1.02165  -0.66511 
 H                    -2.00116   0.75886  -0.45949 
 H                    -1.11532   0.09672  -1.88158 
 C                     0.74518   1.32703  -0.1537 
 H                     1.69518   1.33415   0.42866 
 H                     0.99909   1.51556  -1.22179 
 H                     0.11847   2.17481   0.20569 
 

 GradGradGradGradGradGradGradGradGradGradGradGradGradGradGradGradGradGrad
 Berny optimization.
 Initialization pass.
                           ----------------------------
                           !    Initial Parameters    !
                           ! (Angstroms and Degrees)  !
 --------------------------                            --------------------------
 ! Name  Definition              Value          Derivative Info.                !
 --------------------------------------------------------------------------------
 ! R1    R(1,2)                  1.509          estimate D2E/DX2                !
 ! R2    R(1,8)                  1.5093         estimate D2E/DX2                !
 ! R3    R(1,113)                1.5302         estimate D2E/DX2                !
 ! R4    R(1,117)                1.5297         estimate D2E/DX2                !
 ! R5    R(2,3)                  1.3332         estimate D2E/DX2                !
 ! R6    R(2,92)                 1.332          estimate D2E/DX2                !
 ! R7    R(3,4)                  1.3361         estimate D2E/DX2                !
 ! R8    R(3,90)                 1.4566         estimate D2E/DX2                !
 ! R9    R(4,5)                  1.455          estimate D2E/DX2                !
 ! R10   R(4,8)                  1.3316         estimate D2E/DX2                !
 ! R11   R(5,6)                  1.4898         estimate D2E/DX2                !
 ! R12   R(6,7)                  1.3518         estimate D2E/DX2                !
 ! R13   R(6,10)                 1.3607         estimate D2E/DX2                !
 ! R14   R(7,8)                  1.3321         estimate D2E/DX2                !
 ! R15   R(7,9)                  1.098          estimate D2E/DX2                !
 ! R16   R(10,11)                1.3512         estimate D2E/DX2                !
 ! R17   R(10,18)                1.3534         estimate D2E/DX2                !
 ! R18   R(11,12)                1.342          estimate D2E/DX2                !
 ! R19   R(11,89)                1.1033         estimate D2E/DX2                !
 ! R20   R(12,13)                1.347          estimate D2E/DX2                !
 ! R21   R(12,88)                1.1025         estimate D2E/DX2                !
 ! R22   R(13,14)                1.3514         estimate D2E/DX2                !
 ! R23   R(13,19)                1.3597         estimate D2E/DX2                !
 ! R24   R(14,15)                1.2677         estimate D2E/DX2                !
 ! R25   R(14,18)                1.3573         estimate D2E/DX2                !
 ! R26   R(15,16)                1.7568         estimate D2E/DX2                !
 ! R27   R(16,17)                1.7594         estimate D2E/DX2                !
 ! R28   R(17,18)                1.2679         estimate D2E/DX2                !
 ! R29   R(19,20)                1.3495         estimate D2E/DX2                !
 ! R30   R(19,24)                1.3507         estimate D2E/DX2                !
 ! R31   R(20,21)                1.3417         estimate D2E/DX2                !
 ! R32   R(20,87)                1.1002         estimate D2E/DX2                !
 ! R33   R(21,22)                1.3451         estimate D2E/DX2                !
 ! R34   R(21,86)                1.1043         estimate D2E/DX2                !
 ! R35   R(22,23)                1.3442         estimate D2E/DX2                !
 ! R36   R(22,27)                1.3894         estimate D2E/DX2                !
 ! R37   R(23,24)                1.3437         estimate D2E/DX2                !
 ! R38   R(23,26)                1.1041         estimate D2E/DX2                !
 ! R39   R(24,25)                1.102          estimate D2E/DX2                !
 ! R40   R(27,28)                1.3911         estimate D2E/DX2                !
 ! R41   R(27,57)                1.3921         estimate D2E/DX2                !
 ! R42   R(28,29)                1.3444         estimate D2E/DX2                !
 ! R43   R(28,33)                1.3451         estimate D2E/DX2                !
 ! R44   R(29,30)                1.3425         estimate D2E/DX2                !
 ! R45   R(29,56)                1.1041         estimate D2E/DX2                !
 ! R46   R(30,31)                1.3495         estimate D2E/DX2                !
 ! R47   R(30,55)                1.0981         estimate D2E/DX2                !
 ! R48   R(31,32)                1.3521         estimate D2E/DX2                !
 ! R49   R(31,36)                1.363          estimate D2E/DX2                !
 ! R50   R(32,33)                1.3433         estimate D2E/DX2                !
 ! R51   R(32,35)                1.1012         estimate D2E/DX2                !
 ! R52   R(33,34)                1.1039         estimate D2E/DX2                !
 ! R53   R(36,37)                1.3519         estimate D2E/DX2                !
 ! R54   R(36,41)                1.3614         estimate D2E/DX2                !
 ! R55   R(37,38)                1.3399         estimate D2E/DX2                !
 ! R56   R(37,54)                1.1013         estimate D2E/DX2                !
 ! R57   R(38,39)                1.3407         estimate D2E/DX2                !
 ! R58   R(38,53)                1.1046         estimate D2E/DX2                !
 ! R59   R(39,40)                1.3439         estimate D2E/DX2                !
 ! R60   R(39,48)                1.3753         estimate D2E/DX2                !
 ! R61   R(40,41)                1.3507         estimate D2E/DX2                !
 ! R62   R(40,47)                1.1012         estimate D2E/DX2                !
 ! R63   R(41,42)                1.3753         estimate D2E/DX2                !
 ! R64   R(42,43)                1.4167         estimate D2E/DX2                !
 ! R65   R(43,44)                1.116          estimate D2E/DX2                !
 ! R66   R(43,45)                1.1154         estimate D2E/DX2                !
 ! R67   R(43,46)                1.1158         estimate D2E/DX2                !
 ! R68   R(48,49)                1.4151         estimate D2E/DX2                !
 ! R69   R(49,50)                1.1155         estimate D2E/DX2                !
 ! R70   R(49,51)                1.1159         estimate D2E/DX2                !
 ! R71   R(49,52)                1.1162         estimate D2E/DX2                !
 ! R72   R(57,58)                1.3451         estimate D2E/DX2                !
 ! R73   R(57,62)                1.3446         estimate D2E/DX2                !
 ! R74   R(58,59)                1.3437         estimate D2E/DX2                !
 ! R75   R(58,85)                1.1043         estimate D2E/DX2                !
 ! R76   R(59,60)                1.3505         estimate D2E/DX2                !
 ! R77   R(59,84)                1.0988         estimate D2E/DX2                !
 ! R78   R(60,61)                1.3513         estimate D2E/DX2                !
 ! R79   R(60,65)                1.3634         estimate D2E/DX2                !
 ! R80   R(61,62)                1.3417         estimate D2E/DX2                !
 ! R81   R(61,64)                1.1011         estimate D2E/DX2                !
 ! R82   R(62,63)                1.1045         estimate D2E/DX2                !
 ! R83   R(65,66)                1.3618         estimate D2E/DX2                !
 ! R84   R(65,70)                1.3509         estimate D2E/DX2                !
 ! R85   R(66,67)                1.3524         estimate D2E/DX2                !
 ! R86   R(66,79)                1.3787         estimate D2E/DX2                !
 ! R87   R(67,68)                1.345          estimate D2E/DX2                !
 ! R88   R(67,78)                1.0968         estimate D2E/DX2                !
 ! R89   R(68,69)                1.3399         estimate D2E/DX2                !
 ! R90   R(68,73)                1.3756         estimate D2E/DX2                !
 ! R91   R(69,70)                1.3384         estimate D2E/DX2                !
 ! R92   R(69,72)                1.1045         estimate D2E/DX2                !
 ! R93   R(70,71)                1.1009         estimate D2E/DX2                !
 ! R94   R(73,74)                1.4148         estimate D2E/DX2                !
 ! R95   R(74,75)                1.1161         estimate D2E/DX2                !
 ! R96   R(74,76)                1.1155         estimate D2E/DX2                !
 ! R97   R(74,77)                1.1162         estimate D2E/DX2                !
 ! R98   R(79,80)                1.4165         estimate D2E/DX2                !
 ! R99   R(80,81)                1.116          estimate D2E/DX2                !
 ! R100  R(80,82)                1.1162         estimate D2E/DX2                !
 ! R101  R(80,83)                1.1157         estimate D2E/DX2                !
 ! R102  R(90,91)                1.4863         estimate D2E/DX2                !
 ! R103  R(91,92)                1.3505         estimate D2E/DX2                !
 ! R104  R(91,94)                1.355          estimate D2E/DX2                !
 ! R105  R(92,93)                1.1008         estimate D2E/DX2                !
 ! R106  R(94,95)                1.3479         estimate D2E/DX2                !
 ! R107  R(94,99)                1.3499         estimate D2E/DX2                !
 ! R108  R(95,96)                1.3429         estimate D2E/DX2                !
 ! R109  R(95,112)               1.1012         estimate D2E/DX2                !
 ! R110  R(96,97)                1.3483         estimate D2E/DX2                !
 ! R111  R(96,111)               1.1052         estimate D2E/DX2                !
 ! R112  R(97,98)                1.3444         estimate D2E/DX2                !
 ! R113  R(97,102)               1.3523         estimate D2E/DX2                !
 ! R114  R(98,99)                1.3436         estimate D2E/DX2                !
 ! R115  R(98,101)               1.098          estimate D2E/DX2                !
 ! R116  R(99,100)               1.1032         estimate D2E/DX2                !
 ! R117  R(102,103)              1.3495         estimate D2E/DX2                !
 ! R118  R(102,110)              1.1026         estimate D2E/DX2                !
 ! R119  R(103,104)              1.3164         estimate D2E/DX2                !
 ! R120  R(103,106)              1.3686         estimate D2E/DX2                !
 ! R121  R(104,105)              1.1597         estimate D2E/DX2                !
 ! R122  R(106,107)              1.2151         estimate D2E/DX2                !
 ! R123  R(106,108)              1.3615         estimate D2E/DX2                !
 ! R124  R(108,109)              0.9705         estimate D2E/DX2                !
 ! R125  R(113,114)              1.1145         estimate D2E/DX2                !
 ! R126  R(113,115)              1.1139         estimate D2E/DX2                !
 ! R127  R(113,116)              1.1139         estimate D2E/DX2                !
 ! R128  R(117,118)              1.1143         estimate D2E/DX2                !
 ! R129  R(117,119)              1.1139         estimate D2E/DX2                !
 ! R130  R(117,120)              1.1138         estimate D2E/DX2                !
 ! A1    A(2,1,8)               91.9783         estimate D2E/DX2                !
 ! A2    A(2,1,113)            112.3874         estimate D2E/DX2                !
 ! A3    A(2,1,117)            112.7046         estimate D2E/DX2                !
 ! A4    A(8,1,113)            112.5652         estimate D2E/DX2                !
 ! A5    A(8,1,117)            112.5827         estimate D2E/DX2                !
 ! A6    A(113,1,117)          112.9668         estimate D2E/DX2                !
 ! A7    A(1,2,3)              115.732          estimate D2E/DX2                !
 ! A8    A(1,2,92)             134.5704         estimate D2E/DX2                !
 ! A9    A(3,2,92)             109.6561         estimate D2E/DX2                !
 ! A10   A(2,3,4)              108.2245         estimate D2E/DX2                !
 ! A11   A(2,3,90)             112.1721         estimate D2E/DX2                !
 ! A12   A(4,3,90)             139.5942         estimate D2E/DX2                !
 ! A13   A(3,4,5)              139.9901         estimate D2E/DX2                !
 ! A14   A(3,4,8)              108.2817         estimate D2E/DX2                !
 ! A15   A(5,4,8)              111.7162         estimate D2E/DX2                !
 ! A16   A(4,5,6)               99.2873         estimate D2E/DX2                !
 ! A17   A(5,6,7)              109.1302         estimate D2E/DX2                !
 ! A18   A(5,6,10)             122.9743         estimate D2E/DX2                !
 ! A19   A(7,6,10)             127.8465         estimate D2E/DX2                !
 ! A20   A(6,7,8)              110.2664         estimate D2E/DX2                !
 ! A21   A(6,7,9)              130.2474         estimate D2E/DX2                !
 ! A22   A(8,7,9)              119.4164         estimate D2E/DX2                !
 ! A23   A(1,8,4)              115.771          estimate D2E/DX2                !
 ! A24   A(1,8,7)              134.6902         estimate D2E/DX2                !
 ! A25   A(4,8,7)              109.4707         estimate D2E/DX2                !
 ! A26   A(6,10,11)            121.481          estimate D2E/DX2                !
 ! A27   A(6,10,18)            125.323          estimate D2E/DX2                !
 ! A28   A(11,10,18)           113.1896         estimate D2E/DX2                !
 ! A29   A(10,11,12)           123.8503         estimate D2E/DX2                !
 ! A30   A(10,11,89)           122.1678         estimate D2E/DX2                !
 ! A31   A(12,11,89)           113.9334         estimate D2E/DX2                !
 ! A32   A(11,12,13)           123.0324         estimate D2E/DX2                !
 ! A33   A(11,12,88)           114.9387         estimate D2E/DX2                !
 ! A34   A(13,12,88)           121.7905         estimate D2E/DX2                !
 ! A35   A(12,13,14)           113.7223         estimate D2E/DX2                !
 ! A36   A(12,13,19)           120.6638         estimate D2E/DX2                !
 ! A37   A(14,13,19)           125.5894         estimate D2E/DX2                !
 ! A38   A(13,14,15)           122.4139         estimate D2E/DX2                !
 ! A39   A(13,14,18)           123.0417         estimate D2E/DX2                !
 ! A40   A(15,14,18)           114.5234         estimate D2E/DX2                !
 ! A41   A(14,15,16)           111.7736         estimate D2E/DX2                !
 ! A42   A(15,16,17)            86.1373         estimate D2E/DX2                !
 ! A43   A(16,17,18)           112.0962         estimate D2E/DX2                !
 ! A44   A(10,18,14)           122.8804         estimate D2E/DX2                !
 ! A45   A(10,18,17)           122.9987         estimate D2E/DX2                !
 ! A46   A(14,18,17)           114.0751         estimate D2E/DX2                !
 ! A47   A(13,19,20)           122.3666         estimate D2E/DX2                !
 ! A48   A(13,19,24)           123.2367         estimate D2E/DX2                !
 ! A49   A(20,19,24)           114.3132         estimate D2E/DX2                !
 ! A50   A(19,20,21)           122.9506         estimate D2E/DX2                !
 ! A51   A(19,20,87)           122.4499         estimate D2E/DX2                !
 ! A52   A(21,20,87)           114.3542         estimate D2E/DX2                !
 ! A53   A(20,21,22)           122.0902         estimate D2E/DX2                !
 ! A54   A(20,21,86)           118.3367         estimate D2E/DX2                !
 ! A55   A(22,21,86)           119.5661         estimate D2E/DX2                !
 ! A56   A(21,22,23)           115.6723         estimate D2E/DX2                !
 ! A57   A(21,22,27)           122.3786         estimate D2E/DX2                !
 ! A58   A(23,22,27)           121.9119         estimate D2E/DX2                !
 ! A59   A(22,23,24)           121.876          estimate D2E/DX2                !
 ! A60   A(22,23,26)           119.2598         estimate D2E/DX2                !
 ! A61   A(24,23,26)           118.8246         estimate D2E/DX2                !
 ! A62   A(19,24,23)           123.0561         estimate D2E/DX2                !
 ! A63   A(19,24,25)           121.9103         estimate D2E/DX2                !
 ! A64   A(23,24,25)           115.0203         estimate D2E/DX2                !
 ! A65   A(22,27,28)           120.5302         estimate D2E/DX2                !
 ! A66   A(22,27,57)           117.9163         estimate D2E/DX2                !
 ! A67   A(28,27,57)           121.2964         estimate D2E/DX2                !
 ! A68   A(27,28,29)           122.1867         estimate D2E/DX2                !
 ! A69   A(27,28,33)           123.1452         estimate D2E/DX2                !
 ! A70   A(29,28,33)           114.6558         estimate D2E/DX2                !
 ! A71   A(28,29,30)           122.497          estimate D2E/DX2                !
 ! A72   A(28,29,56)           119.6407         estimate D2E/DX2                !
 ! A73   A(30,29,56)           117.8419         estimate D2E/DX2                !
 ! A74   A(29,30,31)           123.6651         estimate D2E/DX2                !
 ! A75   A(29,30,55)           113.6234         estimate D2E/DX2                !
 ! A76   A(31,30,55)           122.6105         estimate D2E/DX2                !
 ! A77   A(30,31,32)           113.0678         estimate D2E/DX2                !
 ! A78   A(30,31,36)           124.414          estimate D2E/DX2                !
 ! A79   A(32,31,36)           122.5138         estimate D2E/DX2                !
 ! A80   A(31,32,33)           123.6595         estimate D2E/DX2                !
 ! A81   A(31,32,35)           122.3596         estimate D2E/DX2                !
 ! A82   A(33,32,35)           113.8511         estimate D2E/DX2                !
 ! A83   A(28,33,32)           122.3686         estimate D2E/DX2                !
 ! A84   A(28,33,34)           119.651          estimate D2E/DX2                !
 ! A85   A(32,33,34)           117.9374         estimate D2E/DX2                !
 ! A86   A(31,36,37)           119.2878         estimate D2E/DX2                !
 ! A87   A(31,36,41)           125.4541         estimate D2E/DX2                !
 ! A88   A(37,36,41)           115.253          estimate D2E/DX2                !
 ! A89   A(36,37,38)           123.7366         estimate D2E/DX2                !
 ! A90   A(36,37,54)           122.8556         estimate D2E/DX2                !
 ! A91   A(38,37,54)           113.2951         estimate D2E/DX2                !
 ! A92   A(37,38,39)           121.8379         estimate D2E/DX2                !
 ! A93   A(37,38,53)           119.612          estimate D2E/DX2                !
 ! A94   A(39,38,53)           118.5262         estimate D2E/DX2                !
 ! A95   A(38,39,40)           114.3009         estimate D2E/DX2                !
 ! A96   A(38,39,48)           119.4255         estimate D2E/DX2                !
 ! A97   A(40,39,48)           126.2712         estimate D2E/DX2                !
 ! A98   A(39,40,41)           125.361          estimate D2E/DX2                !
 ! A99   A(39,40,47)           118.4788         estimate D2E/DX2                !
 ! A100  A(41,40,47)           116.1487         estimate D2E/DX2                !
 ! A101  A(36,41,40)           119.3314         estimate D2E/DX2                !
 ! A102  A(36,41,42)           124.7746         estimate D2E/DX2                !
 ! A103  A(40,41,42)           115.8115         estimate D2E/DX2                !
 ! A104  A(41,42,43)           113.6907         estimate D2E/DX2                !
 ! A105  A(42,43,44)           109.7984         estimate D2E/DX2                !
 ! A106  A(42,43,45)           108.2411         estimate D2E/DX2                !
 ! A107  A(42,43,46)           110.4521         estimate D2E/DX2                !
 ! A108  A(44,43,45)           109.1456         estimate D2E/DX2                !
 ! A109  A(44,43,46)           110.1417         estimate D2E/DX2                !
 ! A110  A(45,43,46)           109.0218         estimate D2E/DX2                !
 ! A111  A(39,48,49)           118.7826         estimate D2E/DX2                !
 ! A112  A(48,49,50)           107.8364         estimate D2E/DX2                !
 ! A113  A(48,49,51)           110.2258         estimate D2E/DX2                !
 ! A114  A(48,49,52)           110.3244         estimate D2E/DX2                !
 ! A115  A(50,49,51)           108.2177         estimate D2E/DX2                !
 ! A116  A(50,49,52)           108.2205         estimate D2E/DX2                !
 ! A117  A(51,49,52)           111.885          estimate D2E/DX2                !
 ! A118  A(27,57,58)           124.3778         estimate D2E/DX2                !
 ! A119  A(27,57,62)           120.8063         estimate D2E/DX2                !
 ! A120  A(58,57,62)           114.8157         estimate D2E/DX2                !
 ! A121  A(57,58,59)           122.2374         estimate D2E/DX2                !
 ! A122  A(57,58,85)           119.7109         estimate D2E/DX2                !
 ! A123  A(59,58,85)           118.0516         estimate D2E/DX2                !
 ! A124  A(58,59,60)           123.7138         estimate D2E/DX2                !
 ! A125  A(58,59,84)           113.7679         estimate D2E/DX2                !
 ! A126  A(60,59,84)           122.422          estimate D2E/DX2                !
 ! A127  A(59,60,61)           113.1913         estimate D2E/DX2                !
 ! A128  A(59,60,65)           124.63           estimate D2E/DX2                !
 ! A129  A(61,60,65)           122.1761         estimate D2E/DX2                !
 ! A130  A(60,61,62)           123.5508         estimate D2E/DX2                !
 ! A131  A(60,61,64)           122.6093         estimate D2E/DX2                !
 ! A132  A(62,61,64)           113.7824         estimate D2E/DX2                !
 ! A133  A(57,62,61)           122.488          estimate D2E/DX2                !
 ! A134  A(57,62,63)           119.6224         estimate D2E/DX2                !
 ! A135  A(61,62,63)           117.8877         estimate D2E/DX2                !
 ! A136  A(60,65,66)           124.7785         estimate D2E/DX2                !
 ! A137  A(60,65,70)           119.0182         estimate D2E/DX2                !
 ! A138  A(66,65,70)           116.2006         estimate D2E/DX2                !
 ! A139  A(65,66,67)           118.402          estimate D2E/DX2                !
 ! A140  A(65,66,79)           120.7075         estimate D2E/DX2                !
 ! A141  A(67,66,79)           120.7046         estimate D2E/DX2                !
 ! A142  A(66,67,68)           125.6459         estimate D2E/DX2                !
 ! A143  A(66,67,78)           118.142          estimate D2E/DX2                !
 ! A144  A(68,67,78)           116.2112         estimate D2E/DX2                !
 ! A145  A(67,68,69)           114.6301         estimate D2E/DX2                !
 ! A146  A(67,68,73)           126.5458         estimate D2E/DX2                !
 ! A147  A(69,68,73)           118.8185         estimate D2E/DX2                !
 ! A148  A(68,69,70)           121.5328         estimate D2E/DX2                !
 ! A149  A(68,69,72)           118.7976         estimate D2E/DX2                !
 ! A150  A(70,69,72)           119.6661         estimate D2E/DX2                !
 ! A151  A(65,70,69)           123.569          estimate D2E/DX2                !
 ! A152  A(65,70,71)           123.0763         estimate D2E/DX2                !
 ! A153  A(69,70,71)           113.2852         estimate D2E/DX2                !
 ! A154  A(68,73,74)           119.1688         estimate D2E/DX2                !
 ! A155  A(73,74,75)           110.4061         estimate D2E/DX2                !
 ! A156  A(73,74,76)           107.5911         estimate D2E/DX2                !
 ! A157  A(73,74,77)           110.331          estimate D2E/DX2                !
 ! A158  A(75,74,76)           108.1872         estimate D2E/DX2                !
 ! A159  A(75,74,77)           111.9467         estimate D2E/DX2                !
 ! A160  A(76,74,77)           108.2302         estimate D2E/DX2                !
 ! A161  A(66,79,80)           120.2778         estimate D2E/DX2                !
 ! A162  A(79,80,81)           110.7625         estimate D2E/DX2                !
 ! A163  A(79,80,82)           110.4054         estimate D2E/DX2                !
 ! A164  A(79,80,83)           107.5163         estimate D2E/DX2                !
 ! A165  A(81,80,82)           112.2125         estimate D2E/DX2                !
 ! A166  A(81,80,83)           107.5166         estimate D2E/DX2                !
 ! A167  A(82,80,83)           108.2379         estimate D2E/DX2                !
 ! A168  A(3,90,91)             98.2709         estimate D2E/DX2                !
 ! A169  A(90,91,92)           110.5755         estimate D2E/DX2                !
 ! A170  A(90,91,94)           123.8152         estimate D2E/DX2                !
 ! A171  A(92,91,94)           125.5973         estimate D2E/DX2                !
 ! A172  A(2,92,91)            109.2442         estimate D2E/DX2                !
 ! A173  A(2,92,93)            121.6418         estimate D2E/DX2                !
 ! A174  A(91,92,93)           129.0686         estimate D2E/DX2                !
 ! A175  A(91,94,95)           122.1103         estimate D2E/DX2                !
 ! A176  A(91,94,99)           123.456          estimate D2E/DX2                !
 ! A177  A(95,94,99)           114.4304         estimate D2E/DX2                !
 ! A178  A(94,95,96)           122.7029         estimate D2E/DX2                !
 ! A179  A(94,95,112)          121.8533         estimate D2E/DX2                !
 ! A180  A(96,95,112)          115.4424         estimate D2E/DX2                !
 ! A181  A(95,96,97)           122.6132         estimate D2E/DX2                !
 ! A182  A(95,96,111)          116.6574         estimate D2E/DX2                !
 ! A183  A(97,96,111)          120.7274         estimate D2E/DX2                !
 ! A184  A(96,97,98)           114.9106         estimate D2E/DX2                !
 ! A185  A(96,97,102)          118.8331         estimate D2E/DX2                !
 ! A186  A(98,97,102)          126.256          estimate D2E/DX2                !
 ! A187  A(97,98,99)           122.3947         estimate D2E/DX2                !
 ! A188  A(97,98,101)          121.893          estimate D2E/DX2                !
 ! A189  A(99,98,101)          115.7111         estimate D2E/DX2                !
 ! A190  A(94,99,98)           122.9405         estimate D2E/DX2                !
 ! A191  A(94,99,100)          121.7049         estimate D2E/DX2                !
 ! A192  A(98,99,100)          115.3512         estimate D2E/DX2                !
 ! A193  A(97,102,103)         131.0905         estimate D2E/DX2                !
 ! A194  A(97,102,110)         113.7125         estimate D2E/DX2                !
 ! A195  A(103,102,110)        115.1958         estimate D2E/DX2                !
 ! A196  A(102,103,104)        125.4785         estimate D2E/DX2                !
 ! A197  A(102,103,106)        120.1289         estimate D2E/DX2                !
 ! A198  A(104,103,106)        114.3925         estimate D2E/DX2                !
 ! A199  A(103,106,107)        120.5603         estimate D2E/DX2                !
 ! A200  A(103,106,108)        122.2943         estimate D2E/DX2                !
 ! A201  A(107,106,108)        117.1454         estimate D2E/DX2                !
 ! A202  A(106,108,109)        110.494          estimate D2E/DX2                !
 ! A203  A(1,113,114)          111.5629         estimate D2E/DX2                !
 ! A204  A(1,113,115)          110.7764         estimate D2E/DX2                !
 ! A205  A(1,113,116)          110.8133         estimate D2E/DX2                !
 ! A206  A(114,113,115)        107.7942         estimate D2E/DX2                !
 ! A207  A(114,113,116)        107.8111         estimate D2E/DX2                !
 ! A208  A(115,113,116)        107.9334         estimate D2E/DX2                !
 ! A209  A(1,117,118)          111.6137         estimate D2E/DX2                !
 ! A210  A(1,117,119)          110.7451         estimate D2E/DX2                !
 ! A211  A(1,117,120)          110.7191         estimate D2E/DX2                !
 ! A212  A(118,117,119)        107.7996         estimate D2E/DX2                !
 ! A213  A(118,117,120)        107.8306         estimate D2E/DX2                !
 ! A214  A(119,117,120)        107.9875         estimate D2E/DX2                !
 ! A215  L(103,104,105,1,-1)   184.7562         estimate D2E/DX2                !
 ! A216  L(103,104,105,1,-2)   180.2982         estimate D2E/DX2                !
 ! D1    D(8,1,2,3)              0.9322         estimate D2E/DX2                !
 ! D2    D(8,1,2,92)          -176.4244         estimate D2E/DX2                !
 ! D3    D(113,1,2,3)          116.3675         estimate D2E/DX2                !
 ! D4    D(113,1,2,92)         -60.9891         estimate D2E/DX2                !
 ! D5    D(117,1,2,3)         -114.5973         estimate D2E/DX2                !
 ! D6    D(117,1,2,92)          68.0461         estimate D2E/DX2                !
 ! D7    D(2,1,8,4)             -1.1039         estimate D2E/DX2                !
 ! D8    D(2,1,8,7)            175.5044         estimate D2E/DX2                !
 ! D9    D(113,1,8,4)         -116.3839         estimate D2E/DX2                !
 ! D10   D(113,1,8,7)           60.2244         estimate D2E/DX2                !
 ! D11   D(117,1,8,4)          114.5317         estimate D2E/DX2                !
 ! D12   D(117,1,8,7)          -68.86           estimate D2E/DX2                !
 ! D13   D(2,1,113,114)        -51.0915         estimate D2E/DX2                !
 ! D14   D(2,1,113,115)         68.9997         estimate D2E/DX2                !
 ! D15   D(2,1,113,116)       -171.229          estimate D2E/DX2                !
 ! D16   D(8,1,113,114)         51.1246         estimate D2E/DX2                !
 ! D17   D(8,1,113,115)        171.2158         estimate D2E/DX2                !
 ! D18   D(8,1,113,116)        -69.0129         estimate D2E/DX2                !
 ! D19   D(117,1,113,114)     -179.9902         estimate D2E/DX2                !
 ! D20   D(117,1,113,115)      -59.899          estimate D2E/DX2                !
 ! D21   D(117,1,113,116)       59.8722         estimate D2E/DX2                !
 ! D22   D(2,1,117,118)         51.5545         estimate D2E/DX2                !
 ! D23   D(2,1,117,119)        171.6652         estimate D2E/DX2                !
 ! D24   D(2,1,117,120)        -68.5778         estimate D2E/DX2                !
 ! D25   D(8,1,117,118)        -50.8343         estimate D2E/DX2                !
 ! D26   D(8,1,117,119)         69.2764         estimate D2E/DX2                !
 ! D27   D(8,1,117,120)       -170.9666         estimate D2E/DX2                !
 ! D28   D(113,1,117,118)     -179.7104         estimate D2E/DX2                !
 ! D29   D(113,1,117,119)      -59.5997         estimate D2E/DX2                !
 ! D30   D(113,1,117,120)       60.1572         estimate D2E/DX2                !
 ! D31   D(1,2,3,4)             -0.5204         estimate D2E/DX2                !
 ! D32   D(1,2,3,90)          -179.6345         estimate D2E/DX2                !
 ! D33   D(92,2,3,4)           177.4802         estimate D2E/DX2                !
 ! D34   D(92,2,3,90)           -1.6339         estimate D2E/DX2                !
 ! D35   D(1,2,92,91)          177.1681         estimate D2E/DX2                !
 ! D36   D(1,2,92,93)           -0.5895         estimate D2E/DX2                !
 ! D37   D(3,2,92,91)           -0.3033         estimate D2E/DX2                !
 ! D38   D(3,2,92,93)         -178.0609         estimate D2E/DX2                !
 ! D39   D(2,3,4,5)           -178.8192         estimate D2E/DX2                !
 ! D40   D(2,3,4,8)             -0.2636         estimate D2E/DX2                !
 ! D41   D(90,3,4,5)            -0.085          estimate D2E/DX2                !
 ! D42   D(90,3,4,8)           178.4706         estimate D2E/DX2                !
 ! D43   D(2,3,90,91)            2.5989         estimate D2E/DX2                !
 ! D44   D(4,3,90,91)         -176.1028         estimate D2E/DX2                !
 ! D45   D(3,4,5,6)            175.0404         estimate D2E/DX2                !
 ! D46   D(8,4,5,6)             -3.4833         estimate D2E/DX2                !
 ! D47   D(3,4,8,1)              0.9694         estimate D2E/DX2                !
 ! D48   D(3,4,8,7)           -176.4738         estimate D2E/DX2                !
 ! D49   D(5,4,8,1)            179.9699         estimate D2E/DX2                !
 ! D50   D(5,4,8,7)              2.5267         estimate D2E/DX2                !
 ! D51   D(4,5,6,7)              3.2843         estimate D2E/DX2                !
 ! D52   D(4,5,6,10)          -174.3487         estimate D2E/DX2                !
 ! D53   D(5,6,7,8)             -2.1326         estimate D2E/DX2                !
 ! D54   D(5,6,7,9)           -179.0145         estimate D2E/DX2                !
 ! D55   D(10,6,7,8)           175.3526         estimate D2E/DX2                !
 ! D56   D(10,6,7,9)            -1.5293         estimate D2E/DX2                !
 ! D57   D(5,6,10,11)           -0.5534         estimate D2E/DX2                !
 ! D58   D(5,6,10,18)          178.4621         estimate D2E/DX2                !
 ! D59   D(7,6,10,11)         -177.721          estimate D2E/DX2                !
 ! D60   D(7,6,10,18)            1.2945         estimate D2E/DX2                !
 ! D61   D(6,7,8,1)           -176.9473         estimate D2E/DX2                !
 ! D62   D(6,7,8,4)             -0.1868         estimate D2E/DX2                !
 ! D63   D(9,7,8,1)              0.3208         estimate D2E/DX2                !
 ! D64   D(9,7,8,4)            177.0813         estimate D2E/DX2                !
 ! D65   D(6,10,11,12)         175.6311         estimate D2E/DX2                !
 ! D66   D(6,10,11,89)          -1.6823         estimate D2E/DX2                !
 ! D67   D(18,10,11,12)         -3.495          estimate D2E/DX2                !
 ! D68   D(18,10,11,89)        179.1916         estimate D2E/DX2                !
 ! D69   D(6,10,18,14)        -174.1663         estimate D2E/DX2                !
 ! D70   D(6,10,18,17)           3.2257         estimate D2E/DX2                !
 ! D71   D(11,10,18,14)          4.9203         estimate D2E/DX2                !
 ! D72   D(11,10,18,17)       -177.6877         estimate D2E/DX2                !
 ! D73   D(10,11,12,13)         -1.3068         estimate D2E/DX2                !
 ! D74   D(10,11,12,88)       -175.7812         estimate D2E/DX2                !
 ! D75   D(89,11,12,13)        176.2051         estimate D2E/DX2                !
 ! D76   D(89,11,12,88)          1.7308         estimate D2E/DX2                !
 ! D77   D(11,12,13,14)          4.5578         estimate D2E/DX2                !
 ! D78   D(11,12,13,19)       -173.7381         estimate D2E/DX2                !
 ! D79   D(88,12,13,14)        178.6618         estimate D2E/DX2                !
 ! D80   D(88,12,13,19)          0.3659         estimate D2E/DX2                !
 ! D81   D(12,13,14,15)        175.1456         estimate D2E/DX2                !
 ! D82   D(12,13,14,18)         -3.0929         estimate D2E/DX2                !
 ! D83   D(19,13,14,15)         -6.657          estimate D2E/DX2                !
 ! D84   D(19,13,14,18)        175.1045         estimate D2E/DX2                !
 ! D85   D(12,13,19,20)        151.9505         estimate D2E/DX2                !
 ! D86   D(12,13,19,24)        -24.5355         estimate D2E/DX2                !
 ! D87   D(14,13,19,20)        -26.1309         estimate D2E/DX2                !
 ! D88   D(14,13,19,24)        157.3831         estimate D2E/DX2                !
 ! D89   D(13,14,15,16)        171.7371         estimate D2E/DX2                !
 ! D90   D(18,14,15,16)         -9.8859         estimate D2E/DX2                !
 ! D91   D(13,14,18,10)         -1.7467         estimate D2E/DX2                !
 ! D92   D(13,14,18,17)       -179.3512         estimate D2E/DX2                !
 ! D93   D(15,14,18,10)        179.8877         estimate D2E/DX2                !
 ! D94   D(15,14,18,17)          2.2833         estimate D2E/DX2                !
 ! D95   D(14,15,16,17)         10.8287         estimate D2E/DX2                !
 ! D96   D(15,16,17,18)         -9.6048         estimate D2E/DX2                !
 ! D97   D(16,17,18,10)       -171.1296         estimate D2E/DX2                !
 ! D98   D(16,17,18,14)          6.4716         estimate D2E/DX2                !
 ! D99   D(13,19,20,21)       -175.1948         estimate D2E/DX2                !
 ! D100  D(13,19,20,87)         -1.2078         estimate D2E/DX2                !
 ! D101  D(24,19,20,21)          1.5802         estimate D2E/DX2                !
 ! D102  D(24,19,20,87)        175.5673         estimate D2E/DX2                !
 ! D103  D(13,19,24,23)        176.9046         estimate D2E/DX2                !
 ! D104  D(13,19,24,25)         -4.4938         estimate D2E/DX2                !
 ! D105  D(20,19,24,23)          0.1612         estimate D2E/DX2                !
 ! D106  D(20,19,24,25)        178.7629         estimate D2E/DX2                !
 ! D107  D(19,20,21,22)         -1.8017         estimate D2E/DX2                !
 ! D108  D(19,20,21,86)        177.2325         estimate D2E/DX2                !
 ! D109  D(87,20,21,22)       -176.2334         estimate D2E/DX2                !
 ! D110  D(87,20,21,86)          2.8008         estimate D2E/DX2                !
 ! D111  D(20,21,22,23)          0.154          estimate D2E/DX2                !
 ! D112  D(20,21,22,27)        177.9742         estimate D2E/DX2                !
 ! D113  D(86,21,22,23)       -178.8687         estimate D2E/DX2                !
 ! D114  D(86,21,22,27)         -1.0485         estimate D2E/DX2                !
 ! D115  D(21,22,23,24)          1.561          estimate D2E/DX2                !
 ! D116  D(21,22,23,26)        179.2419         estimate D2E/DX2                !
 ! D117  D(27,22,23,24)       -176.2703         estimate D2E/DX2                !
 ! D118  D(27,22,23,26)          1.4106         estimate D2E/DX2                !
 ! D119  D(21,22,27,28)        130.8563         estimate D2E/DX2                !
 ! D120  D(21,22,27,57)        -43.3949         estimate D2E/DX2                !
 ! D121  D(23,22,27,28)        -51.4582         estimate D2E/DX2                !
 ! D122  D(23,22,27,57)        134.2906         estimate D2E/DX2                !
 ! D123  D(22,23,24,19)         -1.7797         estimate D2E/DX2                !
 ! D124  D(22,23,24,25)        179.5302         estimate D2E/DX2                !
 ! D125  D(26,23,24,19)       -179.4704         estimate D2E/DX2                !
 ! D126  D(26,23,24,25)          1.8395         estimate D2E/DX2                !
 ! D127  D(22,27,28,29)        152.8136         estimate D2E/DX2                !
 ! D128  D(22,27,28,33)        -25.8434         estimate D2E/DX2                !
 ! D129  D(57,27,28,29)        -33.1319         estimate D2E/DX2                !
 ! D130  D(57,27,28,33)        148.2111         estimate D2E/DX2                !
 ! D131  D(22,27,57,58)        141.449          estimate D2E/DX2                !
 ! D132  D(22,27,57,62)        -38.7216         estimate D2E/DX2                !
 ! D133  D(28,27,57,58)        -32.7558         estimate D2E/DX2                !
 ! D134  D(28,27,57,62)        147.0736         estimate D2E/DX2                !
 ! D135  D(27,28,29,30)        178.8936         estimate D2E/DX2                !
 ! D136  D(27,28,29,56)         -2.787          estimate D2E/DX2                !
 ! D137  D(33,28,29,30)         -2.3437         estimate D2E/DX2                !
 ! D138  D(33,28,29,56)        175.9758         estimate D2E/DX2                !
 ! D139  D(27,28,33,32)       -179.1352         estimate D2E/DX2                !
 ! D140  D(27,28,33,34)         -1.5726         estimate D2E/DX2                !
 ! D141  D(29,28,33,32)          2.1154         estimate D2E/DX2                !
 ! D142  D(29,28,33,34)        179.678          estimate D2E/DX2                !
 ! D143  D(28,29,30,31)          0.1189         estimate D2E/DX2                !
 ! D144  D(28,29,30,55)        176.5435         estimate D2E/DX2                !
 ! D145  D(56,29,30,31)       -178.2292         estimate D2E/DX2                !
 ! D146  D(56,29,30,55)         -1.8046         estimate D2E/DX2                !
 ! D147  D(29,30,31,32)          2.2824         estimate D2E/DX2                !
 ! D148  D(29,30,31,36)       -178.4598         estimate D2E/DX2                !
 ! D149  D(55,30,31,32)       -173.8283         estimate D2E/DX2                !
 ! D150  D(55,30,31,36)          5.4295         estimate D2E/DX2                !
 ! D151  D(30,31,32,33)         -2.5116         estimate D2E/DX2                !
 ! D152  D(30,31,32,35)       -178.112          estimate D2E/DX2                !
 ! D153  D(36,31,32,33)        178.2146         estimate D2E/DX2                !
 ! D154  D(36,31,32,35)          2.6142         estimate D2E/DX2                !
 ! D155  D(30,31,36,37)       -155.5953         estimate D2E/DX2                !
 ! D156  D(30,31,36,41)         25.2614         estimate D2E/DX2                !
 ! D157  D(32,31,36,37)         23.5949         estimate D2E/DX2                !
 ! D158  D(32,31,36,41)       -155.5484         estimate D2E/DX2                !
 ! D159  D(31,32,33,28)          0.3551         estimate D2E/DX2                !
 ! D160  D(31,32,33,34)       -177.2473         estimate D2E/DX2                !
 ! D161  D(35,32,33,28)        176.2923         estimate D2E/DX2                !
 ! D162  D(35,32,33,34)         -1.3102         estimate D2E/DX2                !
 ! D163  D(31,36,37,38)        177.7023         estimate D2E/DX2                !
 ! D164  D(31,36,37,54)          1.8233         estimate D2E/DX2                !
 ! D165  D(41,36,37,38)         -3.0693         estimate D2E/DX2                !
 ! D166  D(41,36,37,54)       -178.9483         estimate D2E/DX2                !
 ! D167  D(31,36,41,40)       -175.8787         estimate D2E/DX2                !
 ! D168  D(31,36,41,42)          0.675          estimate D2E/DX2                !
 ! D169  D(37,36,41,40)          4.9475         estimate D2E/DX2                !
 ! D170  D(37,36,41,42)       -178.4988         estimate D2E/DX2                !
 ! D171  D(36,37,38,39)         -0.1979         estimate D2E/DX2                !
 ! D172  D(36,37,38,53)       -178.3925         estimate D2E/DX2                !
 ! D173  D(54,37,38,39)        176.0336         estimate D2E/DX2                !
 ! D174  D(54,37,38,53)         -2.161          estimate D2E/DX2                !
 ! D175  D(37,38,39,40)          1.4572         estimate D2E/DX2                !
 ! D176  D(37,38,39,48)       -179.0736         estimate D2E/DX2                !
 ! D177  D(53,38,39,40)        179.6707         estimate D2E/DX2                !
 ! D178  D(53,38,39,48)         -0.86           estimate D2E/DX2                !
 ! D179  D(38,39,40,41)          0.6789         estimate D2E/DX2                !
 ! D180  D(38,39,40,47)        179.3953         estimate D2E/DX2                !
 ! D181  D(48,39,40,41)       -178.7477         estimate D2E/DX2                !
 ! D182  D(48,39,40,47)         -0.0313         estimate D2E/DX2                !
 ! D183  D(38,39,48,49)       -177.645          estimate D2E/DX2                !
 ! D184  D(40,39,48,49)          1.755          estimate D2E/DX2                !
 ! D185  D(39,40,41,36)         -4.0577         estimate D2E/DX2                !
 ! D186  D(39,40,41,42)        179.0865         estimate D2E/DX2                !
 ! D187  D(47,40,41,36)        177.1992         estimate D2E/DX2                !
 ! D188  D(47,40,41,42)          0.3434         estimate D2E/DX2                !
 ! D189  D(36,41,42,43)         83.9879         estimate D2E/DX2                !
 ! D190  D(40,41,42,43)        -99.3494         estimate D2E/DX2                !
 ! D191  D(41,42,43,44)         61.7224         estimate D2E/DX2                !
 ! D192  D(41,42,43,45)       -179.2217         estimate D2E/DX2                !
 ! D193  D(41,42,43,46)        -59.9356         estimate D2E/DX2                !
 ! D194  D(39,48,49,50)        179.2919         estimate D2E/DX2                !
 ! D195  D(39,48,49,51)        -62.768          estimate D2E/DX2                !
 ! D196  D(39,48,49,52)         61.2934         estimate D2E/DX2                !
 ! D197  D(27,57,58,59)        179.8065         estimate D2E/DX2                !
 ! D198  D(27,57,58,85)         -0.2685         estimate D2E/DX2                !
 ! D199  D(62,57,58,59)         -0.0321         estimate D2E/DX2                !
 ! D200  D(62,57,58,85)        179.893          estimate D2E/DX2                !
 ! D201  D(27,57,62,61)       -179.3708         estimate D2E/DX2                !
 ! D202  D(27,57,62,63)          0.1079         estimate D2E/DX2                !
 ! D203  D(58,57,62,61)          0.474          estimate D2E/DX2                !
 ! D204  D(58,57,62,63)        179.9528         estimate D2E/DX2                !
 ! D205  D(57,58,59,60)         -0.2166         estimate D2E/DX2                !
 ! D206  D(57,58,59,84)       -176.7184         estimate D2E/DX2                !
 ! D207  D(85,58,59,60)        179.8572         estimate D2E/DX2                !
 ! D208  D(85,58,59,84)          3.3554         estimate D2E/DX2                !
 ! D209  D(58,59,60,61)          0.022          estimate D2E/DX2                !
 ! D210  D(58,59,60,65)       -179.3983         estimate D2E/DX2                !
 ! D211  D(84,59,60,61)        176.2289         estimate D2E/DX2                !
 ! D212  D(84,59,60,65)         -3.1913         estimate D2E/DX2                !
 ! D213  D(59,60,61,62)          0.4274         estimate D2E/DX2                !
 ! D214  D(59,60,61,64)        177.4945         estimate D2E/DX2                !
 ! D215  D(65,60,61,62)        179.8638         estimate D2E/DX2                !
 ! D216  D(65,60,61,64)         -3.0691         estimate D2E/DX2                !
 ! D217  D(59,60,65,66)        -23.3029         estimate D2E/DX2                !
 ! D218  D(59,60,65,70)        156.0779         estimate D2E/DX2                !
 ! D219  D(61,60,65,66)        157.3267         estimate D2E/DX2                !
 ! D220  D(61,60,65,70)        -23.2925         estimate D2E/DX2                !
 ! D221  D(60,61,62,57)         -0.7127         estimate D2E/DX2                !
 ! D222  D(60,61,62,63)        179.8            estimate D2E/DX2                !
 ! D223  D(64,61,62,57)       -178.013          estimate D2E/DX2                !
 ! D224  D(64,61,62,63)          2.4996         estimate D2E/DX2                !
 ! D225  D(60,65,66,67)       -179.5698         estimate D2E/DX2                !
 ! D226  D(60,65,66,79)         -4.4904         estimate D2E/DX2                !
 ! D227  D(70,65,66,67)          1.0336         estimate D2E/DX2                !
 ! D228  D(70,65,66,79)        176.113          estimate D2E/DX2                !
 ! D229  D(60,65,70,69)       -179.4993         estimate D2E/DX2                !
 ! D230  D(60,65,70,71)         -2.7339         estimate D2E/DX2                !
 ! D231  D(66,65,70,69)         -0.0661         estimate D2E/DX2                !
 ! D232  D(66,65,70,71)        176.6994         estimate D2E/DX2                !
 ! D233  D(65,66,67,68)         -1.794          estimate D2E/DX2                !
 ! D234  D(65,66,67,78)        178.5538         estimate D2E/DX2                !
 ! D235  D(79,66,67,68)       -176.8735         estimate D2E/DX2                !
 ! D236  D(79,66,67,78)          3.4742         estimate D2E/DX2                !
 ! D237  D(65,66,79,80)       -156.6248         estimate D2E/DX2                !
 ! D238  D(67,66,79,80)         18.3408         estimate D2E/DX2                !
 ! D239  D(66,67,68,69)          1.3744         estimate D2E/DX2                !
 ! D240  D(66,67,68,73)       -179.51           estimate D2E/DX2                !
 ! D241  D(78,67,68,69)       -178.9674         estimate D2E/DX2                !
 ! D242  D(78,67,68,73)          0.1482         estimate D2E/DX2                !
 ! D243  D(67,68,69,70)         -0.2894         estimate D2E/DX2                !
 ! D244  D(67,68,69,72)       -179.6061         estimate D2E/DX2                !
 ! D245  D(73,68,69,70)       -179.4785         estimate D2E/DX2                !
 ! D246  D(73,68,69,72)          1.2048         estimate D2E/DX2                !
 ! D247  D(67,68,73,74)         -2.3921         estimate D2E/DX2                !
 ! D248  D(69,68,73,74)        176.6904         estimate D2E/DX2                !
 ! D249  D(68,69,70,65)         -0.3196         estimate D2E/DX2                !
 ! D250  D(68,69,70,71)       -177.3692         estimate D2E/DX2                !
 ! D251  D(72,69,70,65)        178.9913         estimate D2E/DX2                !
 ! D252  D(72,69,70,71)          1.9417         estimate D2E/DX2                !
 ! D253  D(68,73,74,75)         63.1303         estimate D2E/DX2                !
 ! D254  D(68,73,74,76)       -179.0101         estimate D2E/DX2                !
 ! D255  D(68,73,74,77)        -61.1405         estimate D2E/DX2                !
 ! D256  D(66,79,80,81)        -73.0923         estimate D2E/DX2                !
 ! D257  D(66,79,80,82)         51.8254         estimate D2E/DX2                !
 ! D258  D(66,79,80,83)        169.7016         estimate D2E/DX2                !
 ! D259  D(3,90,91,92)          -2.7438         estimate D2E/DX2                !
 ! D260  D(3,90,91,94)         176.0599         estimate D2E/DX2                !
 ! D261  D(90,91,92,2)           2.0695         estimate D2E/DX2                !
 ! D262  D(90,91,92,93)        179.6105         estimate D2E/DX2                !
 ! D263  D(94,91,92,2)        -176.7082         estimate D2E/DX2                !
 ! D264  D(94,91,92,93)          0.8328         estimate D2E/DX2                !
 ! D265  D(90,91,94,95)       -179.6553         estimate D2E/DX2                !
 ! D266  D(90,91,94,99)         -0.3564         estimate D2E/DX2                !
 ! D267  D(92,91,94,95)         -1.0327         estimate D2E/DX2                !
 ! D268  D(92,91,94,99)        178.2663         estimate D2E/DX2                !
 ! D269  D(91,94,95,96)        178.7352         estimate D2E/DX2                !
 ! D270  D(91,94,95,112)        -0.8275         estimate D2E/DX2                !
 ! D271  D(99,94,95,96)         -0.6225         estimate D2E/DX2                !
 ! D272  D(99,94,95,112)       179.8149         estimate D2E/DX2                !
 ! D273  D(91,94,99,98)       -178.5767         estimate D2E/DX2                !
 ! D274  D(91,94,99,100)         0.722          estimate D2E/DX2                !
 ! D275  D(95,94,99,98)          0.7711         estimate D2E/DX2                !
 ! D276  D(95,94,99,100)      -179.9301         estimate D2E/DX2                !
 ! D277  D(94,95,96,97)         -0.138          estimate D2E/DX2                !
 ! D278  D(94,95,96,111)      -179.6239         estimate D2E/DX2                !
 ! D279  D(112,95,96,97)       179.4506         estimate D2E/DX2                !
 ! D280  D(112,95,96,111)       -0.0353         estimate D2E/DX2                !
 ! D281  D(95,96,97,98)          0.7488         estimate D2E/DX2                !
 ! D282  D(95,96,97,102)      -179.0703         estimate D2E/DX2                !
 ! D283  D(111,96,97,98)      -179.7857         estimate D2E/DX2                !
 ! D284  D(111,96,97,102)        0.3952         estimate D2E/DX2                !
 ! D285  D(96,97,98,99)         -0.6011         estimate D2E/DX2                !
 ! D286  D(96,97,98,101)       179.8314         estimate D2E/DX2                !
 ! D287  D(102,97,98,99)       179.2024         estimate D2E/DX2                !
 ! D288  D(102,97,98,101)       -0.3652         estimate D2E/DX2                !
 ! D289  D(96,97,102,103)      179.4278         estimate D2E/DX2                !
 ! D290  D(96,97,102,110)       -0.1481         estimate D2E/DX2                !
 ! D291  D(98,97,102,103)       -0.3688         estimate D2E/DX2                !
 ! D292  D(98,97,102,110)     -179.9446         estimate D2E/DX2                !
 ! D293  D(97,98,99,94)         -0.1664         estimate D2E/DX2                !
 ! D294  D(97,98,99,100)      -179.5063         estimate D2E/DX2                !
 ! D295  D(101,98,99,94)       179.4261         estimate D2E/DX2                !
 ! D296  D(101,98,99,100)        0.0863         estimate D2E/DX2                !
 ! D297  D(97,102,103,104)       0.2616         estimate D2E/DX2                !
 ! D298  D(97,102,103,106)    -179.604          estimate D2E/DX2                !
 ! D299  D(110,102,103,104)    179.8325         estimate D2E/DX2                !
 ! D300  D(110,102,103,106)     -0.0331         estimate D2E/DX2                !
 ! D301  D(102,103,106,107)     -0.2615         estimate D2E/DX2                !
 ! D302  D(102,103,106,108)    179.8243         estimate D2E/DX2                !
 ! D303  D(104,103,106,107)    179.8586         estimate D2E/DX2                !
 ! D304  D(104,103,106,108)     -0.0555         estimate D2E/DX2                !
 ! D305  D(103,106,108,109)     -1.226          estimate D2E/DX2                !
 ! D306  D(107,106,108,109)    178.857          estimate D2E/DX2                !
 --------------------------------------------------------------------------------
 Trust Radius=3.00D-01 FncErr=1.00D-07 GrdErr=1.00D-06
 Number of steps in this run=    662 maximum allowed number of steps=    720.
 GradGradGradGradGradGradGradGradGradGradGradGradGradGradGradGradGradGrad

 Stoichiometry    C61H46N4O6S3
 Framework group  C1[X(C61H46N4O6S3)]
 Deg. of freedom   354
 Full point group                 C1      NOp   1
 Largest Abelian subgroup         C1      NOp   1
 Largest concise Abelian subgroup C1      NOp   1
                         Standard orientation:                         
 ---------------------------------------------------------------------
 Center     Atomic      Atomic             Coordinates (Angstroms)
 Number     Number       Type             X           Y           Z
 ---------------------------------------------------------------------
      1          6           0       -7.238719    0.020123    3.333856
      2          6           0       -8.121595   -0.216540    2.133130
      3          6           0       -7.502033   -0.652446    1.036016
      4          6           0       -6.197739   -0.757213    1.306402
      5         16           0       -4.950212   -1.124180    0.653600
      6          6           0       -3.999171   -0.802462    1.754312
      7          6           0       -4.697622   -0.404131    2.840964
      8          6           0       -6.001400   -0.381903    2.568794
      9          1           0       -4.347135   -0.075555    3.828299
     10          6           0       -2.647897   -0.868179    1.608376
     11          6           0       -2.081780   -1.245606    0.440989
     12          6           0       -0.758456   -1.246322    0.217712
     13          6           0        0.141231   -0.843155    1.135481
     14          6           0       -0.404772   -0.531441    2.331695
     15          7           0        0.298666   -0.219868    3.339258
     16         16           0       -0.690826    0.355102    4.672219
     17          7           0       -2.068291   -0.223082    3.742879
     18          6           0       -1.741617   -0.558918    2.564709
     19          6           0        1.459391   -0.743454    0.817218
     20          6           0        2.287871    0.124829    1.434257
     21          6           0        3.566478    0.299799    1.067280
     22          6           0        4.127784   -0.409890    0.071979
     23          6           0        3.324142   -1.302132   -0.532026
     24          6           0        2.035232   -1.447647   -0.181249
     25          1           0        1.478632   -2.205750   -0.755582
     26          1           0        3.720636   -1.907960   -1.365602
     27          7           0        5.438733   -0.205039   -0.340351
     28          6           0        6.308908   -1.280103   -0.489104
     29          6           0        7.344154   -1.250173   -1.346235
     30          6           0        8.200428   -2.275593   -1.479105
     31          6           0        8.107051   -3.424007   -0.776566
     32          6           0        7.031901   -3.458014    0.042559
     33          6           0        6.172332   -2.435692    0.185719
     34          1           0        5.351951   -2.548143    0.915666
     35          1           0        6.824880   -4.310378    0.708284
     36          6           0        8.984410   -4.462155   -0.877312
     37          6           0        8.575257   -5.708055   -0.548876
     38          6           0        9.347783   -6.797507   -0.656353
     39          6           0       10.607400   -6.729340   -1.110539
     40          6           0       11.020552   -5.486242   -1.410761
     41          6           0       10.282687   -4.363121   -1.274869
     42          8           0       10.908888   -3.189347   -1.623701
     43          6           0       11.415739   -2.463989   -0.517373
     44          1           0       12.185919   -3.073012    0.013138
     45          1           0       11.888511   -1.528999   -0.899917
     46          1           0       10.590214   -2.193849    0.182965
     47          1           0       12.048757   -5.349618   -1.780629
     48          8           0       11.349980   -7.881896   -1.218662
     49          6           0       12.694018   -7.788395   -1.651585
     50          1           0       13.122572   -8.818293   -1.660456
     51          1           0       12.737396   -7.383514   -2.690570
     52          1           0       13.288830   -7.168992   -0.938498
     53          1           0        8.934689   -7.787619   -0.393453
     54          1           0        7.546494   -5.933672   -0.227163
     55          1           0        8.954815   -2.120338   -2.261830
     56          1           0        7.493457   -0.366806   -1.991465
     57          6           0        5.880913    1.107679   -0.478521
     58          6           0        7.110761    1.534498   -0.139851
     59          6           0        7.493849    2.813019   -0.295386
     60          6           0        6.696669    3.777985   -0.802432
     61          6           0        5.467397    3.329749   -1.140144
     62          6           0        5.072377    2.057414   -0.980773
     63          1           0        4.044141    1.793611   -1.285928
     64          1           0        4.680294    3.993486   -1.530415
     65          6           0        7.069532    5.077390   -0.979224
     66          6           0        8.070398    5.698239   -0.295549
     67          6           0        8.326273    6.997804   -0.568891
     68          6           0        7.695911    7.743004   -1.494342
     69          6           0        6.721711    7.104428   -2.156588
     70          6           0        6.424487    5.824571   -1.901535
     71          1           0        5.634476    5.422770   -2.554582
     72          1           0        6.162894    7.650297   -2.937435
     73          8           0        7.947115    9.061887   -1.793965
     74          6           0        8.925553    9.763537   -1.050977
     75          1           0        9.931796    9.304837   -1.201878
     76          1           0        8.957783   10.809013   -1.438744
     77          1           0        8.641142    9.799825    0.027796
     78          1           0        9.117084    7.500369    0.001212
     79          8           0        8.736727    5.048367    0.721498
     80          6           0        9.395999    5.790580    1.731980
     81          1           0       10.328334    6.258005    1.334941
     82          1           0        8.702618    6.543859    2.176641
     83          1           0        9.694509    5.074579    2.533881
     84          1           0        8.543609    2.996494   -0.027567
     85          1           0        7.840506    0.821444    0.282647
     86          1           0        4.163428    1.064289    1.595247
     87          1           0        1.941830    0.816229    2.217019
     88          1           0       -0.460535   -1.512285   -0.809966
     89          1           0       -2.683597   -1.542628   -0.434710
     90         16           0       -8.423463   -0.846323   -0.075319
     91          6           0       -9.664746   -0.372699    0.590993
     92          6           0       -9.418369   -0.049406    1.878887
     93          1           0      -10.111491    0.336220    2.642195
     94          6           0      -10.861770   -0.263513   -0.034499
     95          6           0      -11.965275    0.176957    0.602058
     96          6           0      -13.151594    0.313267   -0.012389
     97          6           0      -13.332138    0.022584   -1.316548
     98          6           0      -12.237499   -0.429613   -1.952737
     99          6           0      -11.052003   -0.568109   -1.335702
    100          1           0      -10.229930   -0.940677   -1.970152
    101          1           0      -12.255982   -0.703287   -3.015921
    102          6           0      -14.555683    0.206212   -1.862315
    103          6           0      -15.004550    0.009855   -3.119742
    104          6           0      -14.283856   -0.435098   -4.127540
    105          7           0      -13.727688   -0.818108   -5.070295
    106          6           0      -16.308702    0.281048   -3.433799
    107          8           0      -17.074913    0.695346   -2.586571
    108          8           0      -16.807113    0.102524   -4.688204
    109          1           0      -16.112302   -0.212136   -5.288297
    110          1           0      -15.306082    0.587893   -1.150271
    111          1           0      -13.988768    0.688866    0.603585
    112          1           0      -11.949107    0.457009    1.666972
    113          6           0       -7.214607    1.489957    3.758896
    114          1           0       -6.987173    2.161349    2.898901
    115          1           0       -8.199968    1.796148    4.178485
    116          1           0       -6.440207    1.663273    4.540529
    117          6           0       -7.548634   -0.930879    4.491207
    118          1           0       -7.555460   -1.994228    4.158121
    119          1           0       -6.787133   -0.831692    5.298123
    120          1           0       -8.546848   -0.704696    4.930598
 ---------------------------------------------------------------------
 Rotational constants (GHZ):      0.0294431      0.0061490      0.0055811
 Standard basis: 6-311G(d,p) (5D, 7F)
 There are  1706 symmetry adapted cartesian basis functions of A   symmetry.
 There are  1632 symmetry adapted basis functions of A   symmetry.
  1632 basis functions,  2778 primitive gaussians,  1706 cartesian basis functions
   268 alpha electrons      268 beta electrons
       nuclear repulsion energy     10474.7383292502 Hartrees.
 NAtoms=  120 NActive=  120 NUniq=  120 SFac= 1.00D+00 NAtFMM=   60 NAOKFM=T Big=T
 Integral buffers will be    131072 words long.
 Raffenetti 2 integral format.
 Two-electron integral symmetry is turned on.
 One-electron integrals computed using PRISM.
 NBasis=  1632 RedAO= T EigKep=  4.65D-05  NBF=  1632
 NBsUse=  1632 1.00D-06 EigRej= -1.00D+00 NBFU=  1632
 ExpMin= 7.71D-02 ExpMax= 9.34D+04 ExpMxC= 3.17D+03 IAcc=2 IRadAn=         4 AccDes= 0.00D+00
 Harris functional with IExCor=  402 and IRadAn=       4 diagonalized for initial guess.
 HarFok:  IExCor=  402 AccDes= 0.00D+00 IRadAn=         4 IDoV= 1 UseB2=F ITyADJ=14
 ICtDFT=  3500011 ScaDFX=  1.000000  1.000000  1.000000  1.000000
 FoFCou: FMM=F IPFlag=           0 FMFlag=      100000 FMFlg1=        2001
         NFxFlg=           0 DoJE=T BraDBF=F KetDBF=T FulRan=T
         wScrn=  0.000000 ICntrl=     500 IOpCl=  0 I1Cent=   200000004 NGrid=           0
         NMat0=    1 NMatS0=      1 NMatT0=    0 NMatD0=    1 NMtDS0=    0 NMtDT0=    0
 Petite list used in FoFCou.
 Requested convergence on RMS density matrix=1.00D-08 within 128 cycles.
 Requested convergence on MAX density matrix=1.00D-06.
 Requested convergence on             energy=1.00D-06.
 No special actions if energy rises.
 Integral accuracy reduced to 1.0D-05 until final iterations.
 Initial convergence to 1.0D-05 achieved.  Increase integral accuracy.
 SCF Done:  E(RB3LYP) =  -4217.30282010     A.U. after   20 cycles
            NFock= 20  Conv=0.28D-08     -V/T= 2.0004

 **********************************************************************

            Population analysis using the SCF density.

 **********************************************************************

 Orbital symmetries:
       Occupied  (A) (A) (A) (A) (A) (A) (A) (A) (A) (A) (A) (A)
                 (A) (A) (A) (A) (A) (A) (A) (A) (A) (A) (A) (A)
                 (A) (A) (A) (A) (A) (A) (A) (A) (A) (A) (A) (A)
                 (A) (A) (A) (A) (A) (A) (A) (A) (A) (A) (A) (A)
                 (A) (A) (A) (A) (A) (A) (A) (A) (A) (A) (A) (A)
                 (A) (A) (A) (A) (A) (A) (A) (A) (A) (A) (A) (A)
                 (A) (A) (A) (A) (A) (A) (A) (A) (A) (A) (A) (A)
                 (A) (A) (A) (A) (A) (A) (A) (A) (A) (A) (A) (A)
                 (A) (A) (A) (A) (A) (A) (A) (A) (A) (A) (A) (A)
                 (A) (A) (A) (A) (A) (A) (A) (A) (A) (A) (A) (A)
                 (A) (A) (A) (A) (A) (A) (A) (A) (A) (A) (A) (A)
                 (A) (A) (A) (A) (A) (A) (A) (A) (A) (A) (A) (A)
                 (A) (A) (A) (A) (A) (A) (A) (A) (A) (A) (A) (A)
                 (A) (A) (A) (A) (A) (A) (A) (A) (A) (A) (A) (A)
                 (A) (A) (A) (A) (A) (A) (A) (A) (A) (A) (A) (A)
                 (A) (A) (A) (A) (A) (A) (A) (A) (A) (A) (A) (A)
                 (A) (A) (A) (A) (A) (A) (A) (A) (A) (A) (A) (A)
                 (A) (A) (A) (A) (A) (A) (A) (A) (A) (A) (A) (A)
                 (A) (A) (A) (A) (A) (A) (A) (A) (A) (A) (A) (A)
                 (A) (A) (A) (A) (A) (A) (A) (A) (A) (A) (A) (A)
                 (A) (A) (A) (A) (A) (A) (A) (A) (A) (A) (A) (A)
                 (A) (A) (A) (A) (A) (A) (A) (A) (A) (A) (A) (A)
                 (A) (A) (A) (A)
       Virtual   (A) (A) (A) (A) (A) (A) (A) (A) (A) (A) (A) (A)
                 (A) (A) (A) (A) (A) (A) (A) (A) (A) (A) (A) (A)
                 (A) (A) (A) (A) (A) (A) (A) (A) (A) (A) (A) (A)
                 (A) (A) (A) (A) (A) (A) (A) (A) (A) (A) (A) (A)
                 (A) (A) (A) (A) (A) (A) (A) (A) (A) (A) (A) (A)
                 (A) (A) (A) (A) (A) (A) (A) (A) (A) (A) (A) (A)
                 (A) (A) (A) (A) (A) (A) (A) (A) (A) (A) (A) (A)
                 (A) (A) (A) (A) (A) (A) (A) (A) (A) (A) (A) (A)
                 (A) (A) (A) (A) (A) (A) (A) (A) (A) (A) (A) (A)
                 (A) (A) (A) (A) (A) (A) (A) (A) (A) (A) (A) (A)
                 (A) (A) (A) (A) (A) (A) (A) (A) (A) (A) (A) (A)
                 (A) (A) (A) (A) (A) (A) (A) (A) (A) (A) (A) (A)
                 (A) (A) (A) (A) (A) (A) (A) (A) (A) (A) (A) (A)
                 (A) (A) (A) (A) (A) (A) (A) (A) (A) (A) (A) (A)
                 (A) (A) (A) (A) (A) (A) (A) (A) (A) (A) (A) (A)
                 (A) (A) (A) (A) (A) (A) (A) (A) (A) (A) (A) (A)
                 (A) (A) (A) (A) (A) (A) (A) (A) (A) (A) (A) (A)
                 (A) (A) (A) (A) (A) (A) (A) (A) (A) (A) (A) (A)
                 (A) (A) (A) (A) (A) (A) (A) (A) (A) (A) (A) (A)
                 (A) (A) (A) (A) (A) (A) (A) (A) (A) (A) (A) (A)
                 (A) (A) (A) (A) (A) (A) (A) (A) (A) (A) (A) (A)
                 (A) (A) (A) (A) (A) (A) (A) (A) (A) (A) (A) (A)
                 (A) (A) (A) (A) (A) (A) (A) (A) (A) (A) (A) (A)
                 (A) (A) (A) (A) (A) (A) (A) (A) (A) (A) (A) (A)
                 (A) (A) (A) (A) (A) (A) (A) (A) (A) (A) (A) (A)
                 (A) (A) (A) (A) (A) (A) (A) (A) (A) (A) (A) (A)
                 (A) (A) (A) (A) (A) (A) (A) (A) (A) (A) (A) (A)
                 (A) (A) (A) (A) (A) (A) (A) (A) (A) (A) (A) (A)
                 (A) (A) (A) (A) (A) (A) (A) (A) (A) (A) (A) (A)
                 (A) (A) (A) (A) (A) (A) (A) (A) (A) (A) (A) (A)
                 (A) (A) (A) (A) (A) (A) (A) (A) (A) (A) (A) (A)
                 (A) (A) (A) (A) (A) (A) (A) (A) (A) (A) (A) (A)
                 (A) (A) (A) (A) (A) (A) (A) (A) (A) (A) (A) (A)
                 (A) (A) (A) (A) (A) (A) (A) (A) (A) (A) (A) (A)
[...]
 Alpha virt. eigenvalues --    2.30760   2.31103   2.31395   2.31664   2.31849
 Alpha virt. eigenvalues --    2.32528   2.32693   2.33046   2.33342   2.33880
 Alpha virt. eigenvalues --    2.34265   2.34465   2.34824   2.35120   2.35489
 Alpha virt. eigenvalues --    2.35760   2.36007   2.36615   2.37578   2.37910
 Alpha virt. eigenvalues --    2.38002   2.38683   2.38761   2.39212   2.39436
 Alpha virt. eigenvalues --    2.39540   2.39785   2.39908   2.40330   2.40429
 Alpha virt. eigenvalues --    2.40809   2.41157   2.41560   2.41976   2.42072
 Alpha virt. eigenvalues --    2.42691   2.42943   2.43360   2.43928   2.43980
 Alpha virt. eigenvalues --    2.44555   2.44802   2.45624   2.45771   2.45931
 Alpha virt. eigenvalues --    2.46500   2.46928   2.47884   2.48070   2.48676
 Alpha virt. eigenvalues --    2.48848   2.48939   2.49437   2.50254   2.50311
 Alpha virt. eigenvalues --    2.50487   2.50574   2.50875   2.51033   2.51346
 Alpha virt. eigenvalues --    2.51920   2.52520   2.52780   2.52852   2.53590
 Alpha virt. eigenvalues --    2.53829   2.54747   2.55128   2.55467   2.56134
 Alpha virt. eigenvalues --    2.56260   2.56668   2.57026   2.57227   2.57425
 Alpha virt. eigenvalues --    2.57790   2.58009   2.58531   2.58653   2.59046
 Alpha virt. eigenvalues --    2.59744   2.60139   2.60156   2.60610   2.60898
 Alpha virt. eigenvalues --    2.60910   2.61280   2.61488   2.61777   2.61799
 Alpha virt. eigenvalues --    2.62325   2.62671   2.63077   2.63269   2.63304
 Alpha virt. eigenvalues --    2.63702   2.63962   2.64069   2.64462   2.64585
 Alpha virt. eigenvalues --    2.64752   2.65158   2.65586   2.65998   2.66124
 Alpha virt. eigenvalues --    2.66358   2.66602   2.66662   2.66947   2.67282
 Alpha virt. eigenvalues --    2.67342   2.67774   2.67829   2.67941   2.68591
 Alpha virt. eigenvalues --    2.68742   2.68833   2.69115   2.69207   2.69537
 Alpha virt. eigenvalues --    2.69750   2.70152   2.70708   2.70938   2.71407
 Alpha virt. eigenvalues --    2.71679   2.71839   2.72220   2.72632   2.73089
 Alpha virt. eigenvalues --    2.73256   2.73564   2.73610   2.73835   2.74028
 Alpha virt. eigenvalues --    2.74882   2.75251   2.75399   2.75748   2.76077
 Alpha virt. eigenvalues --    2.76375   2.76852   2.77242   2.77456   2.78118
 Alpha virt. eigenvalues --    2.78726   2.79162   2.79614   2.79868   2.80272
 Alpha virt. eigenvalues --    2.80858   2.81258   2.81541   2.81950   2.82260
 Alpha virt. eigenvalues --    2.82659   2.82836   2.83277   2.83804   2.83919
 Alpha virt. eigenvalues --    2.84290   2.84748   2.84793   2.85560   2.85713
 Alpha virt. eigenvalues --    2.86068   2.86500   2.87059   2.87240   2.87425
 Alpha virt. eigenvalues --    2.88319   2.88345   2.89191   2.89801   2.90057
 Alpha virt. eigenvalues --    2.90300   2.90525   2.91150   2.91216   2.91679
 Alpha virt. eigenvalues --    2.92045   2.92211   2.92461   2.92820   2.93343
 Alpha virt. eigenvalues --    2.93614   2.93915   2.94151   2.94528   2.94725
 Alpha virt. eigenvalues --    2.95528   2.96355   2.96847   2.97474   2.97649
 Alpha virt. eigenvalues --    2.98120   2.98560   2.98766   2.99104   2.99756
 Alpha virt. eigenvalues --    3.01652   3.02123   3.02278   3.02562   3.03408
 Alpha virt. eigenvalues --    3.03607   3.03824   3.04345   3.04475   3.04609
 Alpha virt. eigenvalues --    3.04910   3.05274   3.05933   3.06349   3.06741
 Alpha virt. eigenvalues --    3.07020   3.07876   3.08475   3.09436   3.10206
 Alpha virt. eigenvalues --    3.10557   3.10787   3.11605   3.12219   3.12655
 Alpha virt. eigenvalues --    3.13065   3.13939   3.15574   3.16849   3.16946
 Alpha virt. eigenvalues --    3.17521   3.17659   3.17758   3.18617   3.18899
 Alpha virt. eigenvalues --    3.19344   3.20092   3.20160   3.20767   3.20900
 Alpha virt. eigenvalues --    3.21413   3.22234   3.22695   3.23608   3.23680
 Alpha virt. eigenvalues --    3.24093   3.24855   3.25241   3.26173   3.27035
 Alpha virt. eigenvalues --    3.28419   3.29841   3.30953   3.31100   3.31169
 Alpha virt. eigenvalues --    3.33010   3.33857   3.33870   3.34593   3.35156
 Alpha virt. eigenvalues --    3.35472   3.35823   3.36212   3.36343   3.36921
 Alpha virt. eigenvalues --    3.37801   3.38120   3.38421   3.39269   3.40835
 Alpha virt. eigenvalues --    3.41053   3.41435   3.42405   3.43813   3.44336
 Alpha virt. eigenvalues --    3.44886   3.47068   3.47132   3.47745   3.49501
 Alpha virt. eigenvalues --    3.49683   3.50642   3.50897   3.52180   3.52653
 Alpha virt. eigenvalues --    3.52782   3.53816   3.54161   3.54409   3.55174
 Alpha virt. eigenvalues --    3.55274   3.55810   3.56740   3.57306   3.58409
 Alpha virt. eigenvalues --    3.58552   3.59327   3.59833   3.61325   3.61509
 Alpha virt. eigenvalues --    3.62890   3.63706   3.65920   3.66644   3.71263
 Alpha virt. eigenvalues --    3.72918   3.74401   3.74615   3.74622   3.74718
 Alpha virt. eigenvalues --    3.75130   3.75525   3.75711   3.77017   3.77157
 Alpha virt. eigenvalues --    3.78356   3.78619   3.79223   3.79375   3.80378
 Alpha virt. eigenvalues --    3.80671   3.80765   3.81660   3.82467   3.83362
 Alpha virt. eigenvalues --    3.86118   3.86444   3.86663   3.87041   3.92455
 Alpha virt. eigenvalues --    3.93703   3.97026   3.97688   3.98133   3.98676
 Alpha virt. eigenvalues --    3.98790   3.99473   4.02140   4.02722   4.03627
 Alpha virt. eigenvalues --    4.04439   4.05693   4.06352   4.07615   4.09002
 Alpha virt. eigenvalues --    4.09983   4.10334   4.11220   4.11663   4.11910
 Alpha virt. eigenvalues --    4.12449   4.12723   4.13394   4.14161   4.14930
 Alpha virt. eigenvalues --    4.15936   4.16887   4.17506   4.17707   4.18324
 Alpha virt. eigenvalues --    4.18836   4.19484   4.20338   4.23743   4.27981
 Alpha virt. eigenvalues --    4.30037   4.39844   4.42244   4.47049   4.47220
 Alpha virt. eigenvalues --    4.52749   4.55291   4.60429   4.63905   4.71394
 Alpha virt. eigenvalues --    4.73929   4.78175   4.80453   4.82103   4.82536
 Alpha virt. eigenvalues --    4.83003   4.84465   4.85916   4.86099   4.89087
 Alpha virt. eigenvalues --    4.89096   4.90298   4.92904   5.03086   5.04736
 Alpha virt. eigenvalues --    5.09655   5.13445   5.26036   5.26814   5.27639
 Alpha virt. eigenvalues --    5.29173   5.31828   5.55767   5.71715   5.76151
 Alpha virt. eigenvalues --    5.76960   5.78032   5.80809   7.78751   7.80213
 Alpha virt. eigenvalues --    7.83319  17.13114  17.17776  17.20509  17.29752
 Alpha virt. eigenvalues --   17.32163  17.42838  17.50246  17.51976  17.55656
 Alpha virt. eigenvalues --   23.38491  23.44145  23.46761  23.47906  23.52725
 Alpha virt. eigenvalues --   23.60260  23.61882  23.62690  23.65486  23.70741
 Alpha virt. eigenvalues --   23.76529  23.76905  23.80958  23.84220  23.85040
 Alpha virt. eigenvalues --   23.85401  23.85648  23.85998  23.86393  23.87413
 Alpha virt. eigenvalues --   23.87610  23.87964  23.88002  23.90580  23.90808
 Alpha virt. eigenvalues --   23.90962  23.91619  23.91746  23.92217  23.92620
 Alpha virt. eigenvalues --   23.92935  23.93277  23.93460  23.93829  23.98296
 Alpha virt. eigenvalues --   24.00072  24.01379  24.01768  24.02099  24.02673
 Alpha virt. eigenvalues --   24.04421  24.05054  24.05736  24.06271  24.08486
 Alpha virt. eigenvalues --   24.09484  24.10301  24.11323  24.11558  24.12163
 Alpha virt. eigenvalues --   24.12419  24.12536  24.12755  24.13490  24.16247
 Alpha virt. eigenvalues --   24.16854  24.17050  24.18313  24.18725  24.19110
 Alpha virt. eigenvalues --   24.42139  35.47605  35.60572  35.65086  35.81325
 Alpha virt. eigenvalues --   49.85004  49.91047  49.91438  49.92647  49.93860
 Alpha virt. eigenvalues --   50.01626 188.90178 188.90975 188.94549
          Condensed to atoms (all electrons):
 Mulliken charges:
               1
     1  C   -0.275428
     2  C    0.022184
     3  C   -0.185029
     4  C   -0.178229
     5  S    0.301798
     6  C   -0.280681
     7  C    0.034818
     8  C    0.021826
     9  H    0.121169
    10  C    0.096925
    11  C   -0.103760
    12  C   -0.075704
    13  C    0.006332
    14  C    0.105754
    15  N   -0.478774
    16  S    0.551865
    17  N   -0.514785
    18  C    0.135667
    19  C   -0.027448
    20  C   -0.029941
    21  C   -0.106945
    22  C    0.163416
    23  C   -0.104413
    24  C   -0.070260
    25  H    0.093485
    26  H    0.115079
    27  N   -0.503793
    28  C    0.102400
    29  C   -0.080273
    30  C   -0.045576
    31  C   -0.099287
    32  C   -0.073798
    33  C   -0.076101
    34  H    0.107758
    35  H    0.094494
    36  C   -0.024070
    37  C   -0.059592
    38  C   -0.088220
    39  C    0.186345
    40  C   -0.097514
    41  C    0.112236
    42  O   -0.387075
    43  C   -0.108120
    44  H    0.095484
    45  H    0.116393
    46  H    0.115828
    47  H    0.102183
    48  O   -0.347784
    49  C   -0.132890
    50  H    0.130368
    51  H    0.114313
    52  H    0.110172
    53  H    0.100097
    54  H    0.096286
    55  H    0.106577
    56  H    0.107855
    57  C    0.097327
    58  C   -0.082989
    59  C   -0.027596
    60  C   -0.021752
    61  C   -0.069628
    62  C   -0.077270
    63  H    0.105362
    64  H    0.095687
    65  C   -0.098366
    66  C    0.196132
    67  C   -0.179856
    68  C    0.178085
    69  C   -0.091014
    70  C   -0.064566
    71  H    0.093527
    72  H    0.097396
    73  O   -0.348314
    74  C   -0.133233
    75  H    0.109159
    76  H    0.131517
    77  H    0.109263
    78  H    0.115844
    79  O   -0.359078
    80  C   -0.132533
    81  H    0.108506
    82  H    0.111129
    83  H    0.132152
    84  H    0.090964
    85  H    0.102181
    86  H    0.115728
    87  H    0.104842
    88  H    0.099026
    89  H    0.102635
    90  S    0.317142
    91  C   -0.297548
    92  C    0.027352
    93  H    0.093922
    94  C    0.035800
    95  C   -0.039583
    96  C   -0.058893
    97  C   -0.087439
    98  C   -0.046438
    99  C   -0.098287
   100  H    0.109245
   101  H    0.127668
   102  C    0.052772
   103  C   -0.205304
   104  C   -0.003543
   105  N   -0.237287
   106  C    0.462504
   107  O   -0.318118
   108  O   -0.299978
   109  H    0.256016
   110  H    0.129687
   111  H    0.100160
   112  H    0.094967
   113  C   -0.211637
   114  H    0.121678
   115  H    0.107061
   116  H    0.113939
   117  C   -0.211576
   118  H    0.121471
   119  H    0.113939
   120  H    0.106426
 Sum of Mulliken charges =   0.00000
 Mulliken charges with hydrogens summed into heavy atoms:
               1
     1  C   -0.275428
     2  C    0.022184
     3  C   -0.185029
     4  C   -0.178229
     5  S    0.301798
     6  C   -0.280681
     7  C    0.155986
     8  C    0.021826
    10  C    0.096925
    11  C   -0.001125
    12  C    0.023323
    13  C    0.006332
    14  C    0.105754
    15  N   -0.478774
    16  S    0.551865
    17  N   -0.514785
    18  C    0.135667
    19  C   -0.027448
    20  C    0.074901
    21  C    0.008783
    22  C    0.163416
    23  C    0.010666
    24  C    0.023225
    27  N   -0.503793
    28  C    0.102400
    29  C    0.027582
    30  C    0.061001
    31  C   -0.099287
    32  C    0.020697
    33  C    0.031657
    36  C   -0.024070
    37  C    0.036694
    38  C    0.011876
    39  C    0.186345
    40  C    0.004669
    41  C    0.112236
    42  O   -0.387075
    43  C    0.219584
    48  O   -0.347784
    49  C    0.221964
    57  C    0.097327
    58  C    0.019192
    59  C    0.063367
    60  C   -0.021752
    61  C    0.026059
    62  C    0.028092
    65  C   -0.098366
    66  C    0.196132
    67  C   -0.064012
    68  C    0.178085
    69  C    0.006382
    70  C    0.028961
    73  O   -0.348314
    74  C    0.216706
    79  O   -0.359078
    80  C    0.219253
    90  S    0.317142
    91  C   -0.297548
    92  C    0.121274
    94  C    0.035800
    95  C    0.055384
    96  C    0.041266
    97  C   -0.087439
    98  C    0.081230
    99  C    0.010958
   102  C    0.182459
   103  C   -0.205304
   104  C   -0.003543
   105  N   -0.237287
   106  C    0.462504
   107  O   -0.318118
   108  O   -0.043962
   113  C    0.131041
   117  C    0.130261
 Electronic spatial extent (au):  <R**2>=         204333.5013
 Charge=              0.0000 electrons
 Dipole moment (field-independent basis, Debye):
    X=             13.1615    Y=              3.2377    Z=              5.9730  Tot=             14.8116
 Quadrupole moment (field-independent basis, Debye-Ang):
   XX=           -557.4069   YY=           -408.5854   ZZ=           -446.8436
   XY=             -3.9531   XZ=            -29.5691   YZ=             14.2821
 Traceless Quadrupole moment (field-independent basis, Debye-Ang):
   XX=            -86.4616   YY=             62.3599   ZZ=             24.1017
   XY=             -3.9531   XZ=            -29.5691   YZ=             14.2821
 Octapole moment (field-independent basis, Debye-Ang**2):
  XXX=           5907.7131  YYY=            135.4285  ZZZ=             97.5053  XYY=            691.2262
  XXY=            486.4219  XXZ=           1062.7088  XZZ=             77.9908  YZZ=             52.2163
  YYZ=             71.4080  XYZ=            105.5430
 Hexadecapole moment (field-independent basis, Debye-Ang**3):
 XXXX=        -313063.0981 YYYY=         -31740.0530 ZZZZ=          -9010.9366 XXXY=          -4375.9396
 XXXZ=          -9097.4405 YYYX=           1215.8086 YYYZ=            639.9272 ZZZX=           -844.2933
 ZZZY=             92.3582 XXYY=         -36769.4190 XXZZ=         -42156.0068 YYZZ=          -7576.3985
 XXYZ=           1102.0109 YYXZ=            416.3185 ZZXY=           -237.1587
 N-N= 1.002970071335D+04 E-N=-2.993608664476D+04  KE= 4.204216727856D+03
 1\1\GINC-N011\FOpt\RB3LYP\6-311G(d,p)\C61H46N4O6S3\R2532\17-May-2021\0
 \\#N B3LYP/6-311G(d,p) OPT\\C61H46O6N4S3\\0,1\C,-0.4608147103,-0.25547
 17293,0.5191443108\C,-0.5569162627,-0.4283045639,2.0341844873\C,-0.008
 4973866,-1.6420396352,2.4249920472\C,0.4747715617,-2.3348249923,1.2676
 546381\S,1.25268051,-3.8267780425,0.8855511201\C,1.2582008009,-3.40925
 8927,-0.8425411954\C,0.6709764725,-2.1696936817,-1.0479065431\C,0.2303
 415359,-1.5649092281,0.1433947267\H,0.5809682174,-1.7494296122,-2.0376
 895384\C,1.8317322251,-4.3306928923,-1.8080674694\C,2.4435341429,-5.51
 68013416,-1.4366790643\C,2.9994720834,-6.4388908998,-2.3506437236\C,3.
 0032996539,-6.258223244,-3.7210331292\C,2.3828109051,-5.040286187,-4.1
 693580238\N,2.2833173991,-4.6429868127,-5.4398881689\S,1.5204212653,-3
 .1970652179,-5.4425872491\N,1.2893178032,-3.0117001751,-3.8299224081\C
 ,1.8058237647,-4.0846166142,-3.2292071058\C,3.6083775854,-7.2429547917
 ,-4.6356193924\C,3.082865348,-7.5101292264,-5.9117988384\C,3.640937073
 3,-8.4740586952,-6.7368063634\C,4.7579168879,-9.2192920449,-6.32522332
 28\C,5.2961581938,-8.9538561035,-5.0553323244\C,4.7333202766,-7.986679
 7968,-4.2382813035\H,5.1898433993,-7.7943315739,-3.2742064842\H,6.1622
 956812,-9.5067005081,-4.7147752985\N,5.3244711308,-10.2023153043,-7.16
 34279412\C,6.7271375543,-10.441639077,-7.1511153812\C,7.2271314266,-11
 .7495952914,-7.1193675088\C,8.5952814861,-11.9862768554,-7.1152010127\
 C,9.5184414432,-10.9284736594,-7.1286787391\C,9.0047839818,-9.62248809
 55,-7.1641272075\C,7.6373373545,-9.378409381,-7.1829933028\H,7.2681108
 632,-8.3608929585,-7.2279322969\H,9.6886921844,-8.7821762457,-7.208198
 249\C,10.9827737378,-11.1626205369,-7.0644967227\C,11.791749055,-10.36
 76591503,-6.2317644389\C,13.1574794303,-10.5601005482,-6.1164903127\C,
 13.7797154278,-11.5821873651,-6.8421385119\C,13.0098235089,-12.3847674
 722,-7.6839972256\C,11.6335399366,-12.1741332907,-7.789772407\O,10.935
 4276533,-13.0261694971,-8.6236991717\C,10.6535742221,-12.494784892,-9.
 9212866862\H,11.581784388,-12.2629832191,-10.4561191588\H,10.108354781
 5,-13.2696019601,-10.4598448976\H,10.0364635381,-11.5932548371,-9.8576
 424471\H,13.4374636964,-13.1889623552,-8.2665297867\O,15.1228307634,-1
 1.7164465184,-6.6608515655\C,15.7993076811,-12.7530649886,-7.358708419
 5\H,16.8431082989,-12.6817560945,-7.057673425\H,15.4100712086,-13.7402
 708949,-7.0864157402\H,15.726169121,-12.6207895591,-8.4440006974\H,13.
 7601775866,-9.9480200072,-5.457166588\H,11.3207830793,-9.5939264293,-5
 .6362871918\H,8.9577806187,-13.005028789,-7.0863911522\H,6.5350971074,
 -12.5826002398,-7.0907363486\C,4.4961883996,-10.9896597727,-8.01463627
 79\C,4.8594015349,-11.2172186321,-9.3475976552\C,4.0630131993,-11.9959
 546722,-10.1760433553\C,2.8691076671,-12.5701465448,-9.7131334562\C,2.
 5117895731,-12.3250012006,-8.3787091981\C,3.3102947069,-11.5586841874,
 -7.5385008016\H,3.0110842137,-11.3919864511,-6.510674241\H,1.587540686
 4,-12.7387314451,-7.9913339963\C,2.0238461176,-13.44659942,-10.5632470
 122\C,1.6796579938,-13.1273555839,-11.8933001113\C,0.8629830269,-13.97
 34968221,-12.6526202253\C,0.3757939874,-15.1597062653,-12.0959379724\C
 ,0.7041094321,-15.4971234598,-10.7824222536\C,1.5125496228,-14.6450031
 331,-10.0466464056\H,1.779886277,-14.922830842,-9.0335764334\H,0.32805
 1513,-16.4235473355,-10.3679180314\O,-0.4196107316,-16.0441616032,-12.
 7621085252\C,-0.7883584906,-15.7595756227,-14.1027685321\H,0.088520762
 1,-15.6952578318,-14.7572303167\H,-1.4125393945,-16.5924695855,-14.422
 3156173\H,-1.364938216,-14.8301735772,-14.1740386375\H,0.6072418894,-1
 3.7050068458,-13.6653587544\O,2.1711668993,-11.95206088,-12.3845699596
 \C,1.8002394243,-11.5328502429,-13.6884470324\H,2.1508869848,-12.23370
 63757,-14.454608744\H,0.715396017,-11.4076012333,-13.7777676922\H,2.28
 48724403,-10.5691746509,-13.8371590784\H,4.3662471395,-12.1557611507,-
 11.2019394967\H,5.7760485856,-10.7838129809,-9.7295343571\H,3.21037840
 54,-8.6556985037,-7.7133959808\H,2.2296937871,-6.9490649701,-6.2658489
 677\H,3.4227680091,-7.3490092704,-1.9433587606\H,2.4990904621,-5.77414
 60382,-0.3850000223\S,-0.0943036742,-1.8838203285,4.1290007554\C,-0.89
 40537151,-0.3167239193,4.3395181885\C,-1.0546686744,0.3166093721,3.114
 6033774\H,-1.5376641613,1.2798929188,3.0193704276\C,-1.2870254832,0.14
 96200285,5.6566876609\C,-1.6762993537,1.4899566375,5.8646269606\C,-2.0
 582809097,1.9326422345,7.114613169\C,-2.0697298204,1.0748735688,8.2364
 161854\C,-1.6745577792,-0.2644472217,8.0300172952\C,-1.2991220706,-0.7
 086399952,6.778274207\H,-1.019908156,-1.7491067741,6.6597638953\H,-1.6
 663951437,-0.9666843284,8.8520822537\C,-2.4807999005,1.6378483726,9.49
 85771874\C,-2.6063347127,1.0972752566,10.7422267685\C,-2.3336274292,-0
 .2544494128,11.0807508819\N,-2.1356153835,-1.3359430246,11.4475959894\
 C,-3.0727625732,2.0051427386,11.8523616425\O,-3.3329859331,3.165436202
 8,11.6782107676\O,-3.188637842,1.4492257586,13.0768024883\H,-2.9465656
 299,0.512389083,13.0650414542\H,-2.7454557742,2.6919973435,9.474881358
 4\H,-2.3499790775,2.9692128225,7.2448336796\H,-1.6607505094,2.19135300
 4,5.0402015105\C,-1.8577077453,-0.1491697958,-0.1290950831\H,-2.477610
 2322,-1.0088092764,0.1330785998\H,-2.3683331808,0.7583553149,0.2048911
 79\H,-1.7710501553,-0.1072828069,-1.2179984159\C,0.4048941223,0.966038
 7744,0.142650336\H,1.3937664836,0.9017985407,0.6009631617\H,0.53210349
 91,1.0237489837,-0.9415965864\H,-0.0705647021,1.8922501081,0.477292757
 4\\Version=ES64L-G09RevD.01\State=1-A\HF=-4217.8467467\RMSD=4.560e-09\
 RMSF=1.853e-06\Dipole=1.0731385,-1.1811355,-5.6045715\Quadrupole=27.54
 31713,9.6755672,-37.2187385,5.3694044,42.1035916,-31.3974632\PG=C01 [X
 (C61H46N4O6S3)]\\@


 IT IS THE GODS' CUSTOM TO BRING LOW ALL THINGS OF SURPASSING GREATNESS.
     -- HERODOTUS
 IT IS THE LOFTY PINE THAT BY THE STORM IS OFTENER TOSSED;
 TOWERS FALL WITH HEAVIER CRASH WHICH HIGHER SOAR.
     -- HORACE
 THE BIGGER THEY COME, THE HARDER THEY FALL.
     -- BOB FITZSIMONS HEAVYWEIGHT CHAMPION, 1897-1899
 Job cpu time:       3 days  5 hours 37 minutes 35.0 seconds.
 File lengths (MBytes):  RWF=   1621 Int=      0 D2E=      0 Chk=    174 Scr=      1
 Normal termination of Gaussian 09 at Mon May 17 16:40:54 2021.
