 Entering Gaussian System, Link 0=g16
 Input=ES.com
 Output=ES.out
 Initial command:
 /usr/local/apps/gaussian/g16-b01-avx2//g16/l1.exe "/tmp/r2532.861518.maple/Gau-32107.inp" -scrdir="/tmp/r2532.861518.maple/"
 Entering Link 1 = /usr/local/apps/gaussian/g16-b01-avx2//g16/l1.exe PID=     32110.
  
 Copyright (c) 1988-2017, Gaussian, Inc.  All Rights Reserved.
  
 This is part of the Gaussian(R) 16 program.  It is based on
 the Gaussian(R) 09 system (copyright 2009, Gaussian, Inc.),
 the Gaussian(R) 03 system (copyright 2003, Gaussian, Inc.),
 the Gaussian(R) 98 system (copyright 1998, Gaussian, Inc.),
 the Gaussian(R) 94 system (copyright 1995, Gaussian, Inc.),
 the Gaussian 92(TM) system (copyright 1992, Gaussian, Inc.),
 the Gaussian 90(TM) system (copyright 1990, Gaussian, Inc.),
 the Gaussian 88(TM) system (copyright 1988, Gaussian, Inc.),
 the Gaussian 86(TM) system (copyright 1986, Carnegie Mellon
 University), and the Gaussian 82(TM) system (copyright 1983,
 Carnegie Mellon University). Gaussian is a federally registered
 trademark of Gaussian, Inc.
  
 This software contains proprietary and confidential information,
 including trade secrets, belonging to Gaussian, Inc.
  
 This software is provided under written license and may be
 used, copied, transmitted, or stored only in accord with that
 written license.
  
 The following legend is applicable only to US Government
 contracts under FAR:
  
                    RESTRICTED RIGHTS LEGEND
  
 Use, reproduction and disclosure by the US Government is
 subject to restrictions as set forth in subparagraphs (a)
 and (c) of the Commercial Computer Software - Restricted
 Rights clause in FAR 52.227-19.
  
 Gaussian, Inc.
 340 Quinnipiac St., Bldg. 40, Wallingford CT 06492
  
  
 ---------------------------------------------------------------
 Warning -- This program may not be used in any manner that
 competes with the business of Gaussian, Inc. or will provide
 assistance to any competitor of Gaussian, Inc.  The licensee
 of this program is prohibited from giving any competitor of
 Gaussian, Inc. access to this program.  By using this program,
 the user acknowledges that Gaussian, Inc. is engaged in the
 business of creating and licensing software in the field of
 computational chemistry and represents and warrants to the
 licensee that it is not a competitor of Gaussian, Inc. and that
 it will not use this program in any manner prohibited above.
 ---------------------------------------------------------------
  

 Cite this work as:
 Gaussian 16, Revision B.01,
 M. J. Frisch, G. W. Trucks, H. B. Schlegel, G. E. Scuseria, 
 M. A. Robb, J. R. Cheeseman, G. Scalmani, V. Barone, 
 G. A. Petersson, H. Nakatsuji, X. Li, M. Caricato, A. V. Marenich, 
 J. Bloino, B. G. Janesko, R. Gomperts, B. Mennucci, H. P. Hratchian, 
 J. V. Ortiz, A. F. Izmaylov, J. L. Sonnenberg, D. Williams-Young, 
 F. Ding, F. Lipparini, F. Egidi, J. Goings, B. Peng, A. Petrone, 
 T. Henderson, D. Ranasinghe, V. G. Zakrzewski, J. Gao, N. Rega, 
 G. Zheng, W. Liang, M. Hada, M. Ehara, K. Toyota, R. Fukuda, 
 J. Hasegawa, M. Ishida, T. Nakajima, Y. Honda, O. Kitao, H. Nakai, 
 T. Vreven, K. Throssell, J. A. Montgomery, Jr., J. E. Peralta, 
 F. Ogliaro, M. J. Bearpark, J. J. Heyd, E. N. Brothers, K. N. Kudin, 
 V. N. Staroverov, T. A. Keith, R. Kobayashi, J. Normand, 
 K. Raghavachari, A. P. Rendell, J. C. Burant, S. S. Iyengar, 
 J. Tomasi, M. Cossi, J. M. Millam, M. Klene, C. Adamo, R. Cammi, 
 J. W. Ochterski, R. L. Martin, K. Morokuma, O. Farkas, 
 J. B. Foresman, and D. J. Fox, Gaussian, Inc., Wallingford CT, 2016.
 
 ******************************************
 Gaussian 16:  ES64L-G16RevB.01 20-Dec-2017
                16-Jun-2021 
 ******************************************
 %mem=8gb
 ------------------------------------
 #N TD(NStates=10) wB97XD/aug-cc-pVDZ
 ------------------------------------
 1/38=1,172=1/1;
 2/12=2,17=6,18=5,40=1/2;
 3/5=16,7=10,11=9,25=1,30=1,74=-58/1,2,3,8;
 4//1;
 5/5=2,38=5/2;
 8/6=1,10=1,108=10/1;
 9/41=10,42=1,70=2/14;
 6/7=2,8=2,9=2,10=2/1;
 99/5=1,9=1/99;
 ----
 Name
 ----
 Symbolic Z-matrix:
 Charge =  0 Multiplicity = 1
 6                     0.93737  -3.07345  -0.18667 
 6                     2.12287  -2.11525  -0.08166 
 6                     1.67932  -0.8041    0.06845 
 6                     0.24933  -0.78717   0.07773 
 16                   -1.03641   0.36103   0.21552 
 6                    -2.23886  -0.92615   0.05558 
 6                    -3.66345  -0.61872   0.08808 
 6                    -4.16707   0.63979  -0.28462 
 6                    -5.52322   0.91821  -0.26005 
 6                    -6.45364  -0.05647   0.14537 
 7                    -7.82802   0.22115   0.17817 
 6                    -8.3007    1.55297   0.38581 
 6                    -9.2542    2.10972  -0.46577 
 1                    -9.62521   1.52842  -1.30142 
 6                    -9.74567   3.39753  -0.25291 
 6                    -9.267     4.15743   0.81702 
 6                    -8.3043    3.60531   1.67269 
 6                    -7.83674   2.31876   1.46616 
 1                    -7.10302   1.89706   2.14277 
 1                    -7.95078   4.20256   2.50434 
 8                    -9.66831   5.42528   1.11427 
 6                    -10.64223   6.03995   0.28244 
 1                    -10.28531   6.13903  -0.74886 
 1                    -11.58568   5.48251   0.28856 
 1                    -10.80803   7.03089   0.70155 
 1                    -10.48879   3.79437  -0.93121 
 6                    -8.79054  -0.816    -0.01459 
 6                    -8.70689  -1.68172  -1.10535 
 6                    -9.64725  -2.69412  -1.29497 
 6                    -10.70787  -2.83637  -0.39654 
 6                    -10.80507  -1.9603    0.69236 
 6                    -9.85575  -0.97086   0.88449 
 1                    -9.93578  -0.30347   1.73416 
 1                    -11.63103  -2.0851    1.38194 
 8                    -11.68672  -3.78038  -0.48918 
 6                    -11.64573  -4.69413  -1.57594 
 1                    -11.72295  -4.17736  -2.53919 
 1                    -10.73103  -5.29752  -1.55983 
 1                    -12.50803  -5.34631  -1.44855 
 1                    -9.54839  -3.34875  -2.15031 
 1                    -7.89486  -1.56908  -1.81389 
 6                    -5.95718  -1.31887   0.52374 
 6                    -4.60013  -1.58717   0.49474 
 1                    -4.25383  -2.55733   0.83193 
 1                    -6.64587  -2.0827    0.86097 
 1                    -5.87359   1.89365  -0.57133 
 1                    -3.48639   1.40814  -0.63469 
 6                    -1.62549  -2.16105  -0.07841 
 6                    -0.21972  -2.0834   -0.06482 
 1                    -2.19197  -3.07258  -0.2147 
 16                    2.97765   0.32206   0.18497 
 6                     4.16218  -0.98809   0.01242 
 6                     3.51621  -2.21773  -0.11396 
 1                     4.06458  -3.14215  -0.24465 
 6                     5.56705  -0.7373    0.04514 
 16                    6.68086  -2.03652   0.37656 
 6                     8.11724  -1.00735   0.24972 
 6                     7.69972   0.29807  -0.01318 
 6                     6.28361   0.45519  -0.1447 
 6                     5.91829   1.77686  -0.54353 
 6                     7.00203   2.58067  -0.71621 
 16                    8.54275   1.78183  -0.38 
 6                     6.92949   3.99545  -1.12736 
 8                     5.9002    4.58649  -1.35272 
 8                     8.15699   4.5424   -1.22147 
 6                     8.20206   5.92907  -1.60434 
 1                     7.75699   6.06463  -2.59108 
 1                     7.66179   6.53969  -0.87974 
 1                     9.25704   6.19099  -1.61758 
 1                     4.91461   2.13592  -0.71661 
 6                     9.37614  -1.65344   0.3541 
 6                     10.62216  -1.15892   0.65376 
 6                     10.83171   0.14424   1.17759 
 7                     10.99525   1.19398   1.63525 
 6                     11.83447  -2.03674   0.64516 
 8                     11.76302  -3.14754  -0.14686 
 1                     11.0612  -3.0442   -0.79945 
 8                     12.81695  -1.81893   1.29612 
 1                     9.33135  -2.73041   0.20604 
 6                     0.91727  -3.80042  -1.54825 
 1                     0.92417  -3.0863   -2.37401 
 1                     1.78943  -4.45222  -1.6488 
 1                     0.02102  -4.42022  -1.63746 
 6                     0.93018  -4.09326   0.97224 
 1                     0.94722  -3.58743   1.93955 
 1                     0.0336   -4.71732   0.9264 
 1                     1.80217  -4.75016   0.91157 
 
 Stoichiometry    C43H32N2O6S4
 Framework group  C1[X(C43H32N2O6S4)]
 Deg. of freedom   255
 Full point group                 C1      NOp   1
 Largest Abelian subgroup         C1      NOp   1
 Largest concise Abelian subgroup C1      NOp   1
                         Standard orientation:                         
 ---------------------------------------------------------------------
 Center     Atomic      Atomic             Coordinates (Angstroms)
 Number     Number       Type             X           Y           Z
 ---------------------------------------------------------------------
      1          6           0       -0.937367   -3.073447    0.186672
      2          6           0       -2.122867   -2.115248    0.081661
      3          6           0       -1.679316   -0.804099   -0.068452
      4          6           0       -0.249325   -0.787165   -0.077728
      5         16           0        1.036410    0.361025   -0.215518
      6          6           0        2.238860   -0.926149   -0.055578
      7          6           0        3.663445   -0.618716   -0.088081
      8          6           0        4.167072    0.639785    0.284618
      9          6           0        5.523215    0.918205    0.260048
     10          6           0        6.453643   -0.056471   -0.145370
     11          7           0        7.828021    0.221147   -0.178165
     12          6           0        8.300703    1.552970   -0.385806
     13          6           0        9.254197    2.109715    0.465769
     14          1           0        9.625209    1.528423    1.301420
     15          6           0        9.745666    3.397532    0.252908
     16          6           0        9.267005    4.157431   -0.817016
     17          6           0        8.304305    3.605310   -1.672687
     18          6           0        7.836741    2.318757   -1.466163
     19          1           0        7.103023    1.897060   -2.142771
     20          1           0        7.950783    4.202556   -2.504337
     21          8           0        9.668305    5.425275   -1.114274
     22          6           0       10.642233    6.039950   -0.282435
     23          1           0       10.285306    6.139026    0.748855
     24          1           0       11.585682    5.482513   -0.288556
     25          1           0       10.808033    7.030888   -0.701547
     26          1           0       10.488787    3.794368    0.931210
     27          6           0        8.790537   -0.816003    0.014590
     28          6           0        8.706892   -1.681719    1.105345
     29          6           0        9.647255   -2.694117    1.294967
     30          6           0       10.707870   -2.836370    0.396541
     31          6           0       10.805065   -1.960304   -0.692355
     32          6           0        9.855745   -0.970857   -0.884487
     33          1           0        9.935782   -0.303465   -1.734163
     34          1           0       11.631034   -2.085101   -1.381938
     35          8           0       11.686719   -3.780380    0.489179
     36          6           0       11.645727   -4.694126    1.575939
     37          1           0       11.722954   -4.177359    2.539191
     38          1           0       10.731032   -5.297522    1.559834
     39          1           0       12.508032   -5.346312    1.448547
     40          1           0        9.548391   -3.348753    2.150306
     41          1           0        7.894861   -1.569078    1.813892
     42          6           0        5.957184   -1.318867   -0.523743
     43          6           0        4.600126   -1.587169   -0.494737
     44          1           0        4.253834   -2.557328   -0.831925
     45          1           0        6.645870   -2.082701   -0.860973
     46          1           0        5.873589    1.893646    0.571326
     47          1           0        3.486389    1.408137    0.634689
     48          6           0        1.625489   -2.161053    0.078410
     49          6           0        0.219718   -2.083396    0.064821
     50          1           0        2.191968   -3.072577    0.214700
     51         16           0       -2.977646    0.322058   -0.184968
     52          6           0       -4.162184   -0.988087   -0.012416
     53          6           0       -3.516210   -2.217730    0.113955
     54          1           0       -4.064580   -3.142153    0.244654
     55          6           0       -5.567054   -0.737299   -0.045138
     56         16           0       -6.680862   -2.036515   -0.376555
     57          6           0       -8.117241   -1.007346   -0.249715
     58          6           0       -7.699721    0.298072    0.013178
     59          6           0       -6.283611    0.455188    0.144695
     60          6           0       -5.918293    1.776862    0.543528
     61          6           0       -7.002029    2.580666    0.716207
     62         16           0       -8.542754    1.781825    0.380001
     63          6           0       -6.929485    3.995445    1.127359
     64          8           0       -5.900200    4.586493    1.352715
     65          8           0       -8.156994    4.542399    1.221469
     66          6           0       -8.202058    5.929065    1.604344
     67          1           0       -7.756993    6.064628    2.591080
     68          1           0       -7.661788    6.539691    0.879736
     69          1           0       -9.257040    6.190991    1.617581
     70          1           0       -4.914608    2.135918    0.716605
     71          6           0       -9.376140   -1.653440   -0.354095
     72          6           0      -10.622163   -1.158916   -0.653764
     73          6           0      -10.831709    0.144243   -1.177590
     74          7           0      -10.995247    1.193976   -1.635252
     75          6           0      -11.834467   -2.036742   -0.645164
     76          8           0      -11.763023   -3.147544    0.146859
     77          1           0      -11.061204   -3.044195    0.799445
     78          8           0      -12.816952   -1.818928   -1.296115
     79          1           0       -9.331350   -2.730405   -0.206037
     80          6           0       -0.917271   -3.800420    1.548251
     81          1           0       -0.924169   -3.086302    2.374015
     82          1           0       -1.789433   -4.452223    1.648799
     83          1           0       -0.021019   -4.420217    1.637464
     84          6           0       -0.930182   -4.093261   -0.972236
     85          1           0       -0.947217   -3.587426   -1.939546
     86          1           0       -0.033600   -4.717316   -0.926403
     87          1           0       -1.802170   -4.750158   -0.911574
 ---------------------------------------------------------------------
 Rotational constants (GHZ):           0.0816788           0.0106340           0.0095919
 Standard basis: Aug-CC-pVDZ (5D, 7F)
 There are  1679 symmetry adapted cartesian basis functions of A   symmetry.
 There are  1569 symmetry adapted basis functions of A   symmetry.
  1569 basis functions,  2869 primitive gaussians,  1679 cartesian basis functions
   208 alpha electrons      208 beta electrons
       nuclear repulsion energy      7134.6351005501 Hartrees.
 NAtoms=   87 NActive=   87 NUniq=   87 SFac= 1.00D+00 NAtFMM=   60 NAOKFM=T Big=T
 Integral buffers will be    131072 words long.
 Raffenetti 1 integral format.
 Two-electron integral symmetry is turned on.
 Nuclear repulsion after empirical dispersion term =     7134.5660971593 Hartrees.
 One-electron integrals computed using PRISM.
 NBasis=  1569 RedAO= T EigKep=  1.04D-06  NBF=  1569
 NBsUse=  1559 1.00D-06 EigRej=  9.70D-07 NBFU=  1559
 ExpMin= 2.97D-02 ExpMax= 1.11D+05 ExpMxC= 1.07D+03 IAcc=3 IRadAn=         5 AccDes= 0.00D+00
 Harris functional with IExCor= 4639 and IRadAn=       5 diagonalized for initial guess.
 HarFok:  IExCor= 4639 AccDes= 0.00D+00 IRadAn=         5 IDoV= 1 UseB2=F ITyADJ=14
 ICtDFT=  3500011 ScaDFX=  1.000000  1.000000  1.000000  1.000000
 FoFCou: FMM=F IPFlag=           0 FMFlag=      100000 FMFlg1=        2001
         NFxFlg=           0 DoJE=T BraDBF=F KetDBF=T FulRan=T
         wScrn=  0.000000 ICntrl=       500 IOpCl=  0 I1Cent=   200000004 NGrid=           0
         NMat0=    1 NMatS0=      1 NMatT0=    0 NMatD0=    1 NMtDS0=    0 NMtDT0=    0
 Petite list used in FoFCou.
 Requested convergence on RMS density matrix=1.00D-08 within 128 cycles.
 Requested convergence on MAX density matrix=1.00D-06.
 Requested convergence on             energy=1.00D-06.
 No special actions if energy rises.
 Restarting incremental Fock formation.
 Restarting incremental Fock formation.
 Restarting incremental Fock formation.
 Restarting incremental Fock formation.
 Restarting incremental Fock formation.
 SCF Done:  E(RwB97XD) =  -3810.93882893     A.U. after  114 cycles
            NFock=114  Conv=0.94D-08     -V/T= 2.0044
 DoSCS=F DFT=T ScalE2(SS,OS)=  1.000000  1.000000
 ExpMin= 2.97D-02 ExpMax= 1.11D+05 ExpMxC= 1.07D+03 IAcc=3 IRadAn=         5 AccDes= 0.00D+00
 HarFok:  IExCor=  205 AccDes= 0.00D+00 IRadAn=         5 IDoV=-2 UseB2=F ITyADJ=14
 ICtDFT= 12500011 ScaDFX=  1.000000  1.000000  1.000000  1.000000
 GSVD:  LWork=       -5609 too small for GESVD, short by       26270 words or       26270 for optimal perf.
 Range of M.O.s used for correlation:    72  1559
 NBasis=  1569 NAE=   208 NBE=   208 NFC=    71 NFV=     0
 NROrb=   1488 NOA=   137 NOB=   137 NVA=  1351 NVB=  1351

 **** Warning!!: The largest alpha MO coefficient is  0.10186462D+03

 Orbital symmetries:
       Occupied  (A) (A) (A) (A) (A) (A) (A) (A) (A) (A) (A) (A)
                 (A) (A) (A) (A) (A) (A) (A) (A) (A) (A) (A) (A)
                 (A) (A) (A) (A) (A) (A) (A) (A) (A) (A) (A) (A)
                 (A) (A) (A) (A) (A) (A) (A) (A) (A) (A) (A) (A)
                 (A) (A) (A) (A) (A) (A) (A) (A) (A) (A) (A) (A)
                 (A) (A) (A) (A) (A) (A) (A) (A) (A) (A) (A) (A)
                 (A) (A) (A) (A) (A) (A) (A) (A) (A) (A) (A) (A)
                 (A) (A) (A) (A) (A) (A) (A) (A) (A) (A) (A) (A)
                 (A) (A) (A) (A) (A) (A) (A) (A) (A) (A) (A) (A)
                 (A) (A) (A) (A) (A) (A) (A) (A) (A) (A) (A) (A)
                 (A) (A) (A) (A) (A) (A) (A) (A) (A) (A) (A) (A)
                 (A) (A) (A) (A) (A) (A) (A) (A) (A) (A) (A) (A)
                 (A) (A) (A) (A) (A) (A) (A) (A) (A) (A) (A) (A)
                 (A) (A) (A) (A) (A) (A) (A) (A) (A) (A) (A) (A)
                 (A) (A) (A) (A) (A) (A) (A) (A) (A) (A) (A) (A)
                 (A) (A) (A) (A) (A) (A) (A) (A) (A) (A) (A) (A)
                 (A) (A) (A) (A) (A) (A) (A) (A) (A) (A) (A) (A)
                 (A) (A) (A) (A)
       Virtual   (A) (A) (A) (A) (A) (A) (A) (A) (A) (A) (A) (A)
                 (A) (A) (A) (A) (A) (A) (A) (A) (A) (A) (A) (A)
                 (A) (A) (A) (A) (A) (A) (A) (A) (A) (A) (A) (A)
                 (A) (A) (A) (A) (A) (A) (A) (A) (A) (A) (A) (A)
                 (A) (A) (A) (A) (A) (A) (A) (A) (A) (A) (A) (A)
                 (A) (A) (A) (A) (A) (A) (A) (A) (A) (A) (A) (A)
                 (A) (A) (A) (A) (A) (A) (A) (A) (A) (A) (A) (A)
                 (A) (A) (A) (A) (A) (A) (A) (A) (A) (A) (A) (A)
                 (A) (A) (A) (A) (A) (A) (A) (A) (A) (A) (A) (A)
                 (A) (A) (A) (A) (A) (A) (A) (A) (A) (A) (A) (A)
                 (A) (A) (A) (A) (A) (A) (A) (A) (A) (A) (A) (A)
                 (A) (A) (A) (A) (A) (A) (A) (A) (A) (A) (A) (A)
                 (A) (A) (A) (A) (A) (A) (A) (A) (A) (A) (A) (A)
                 (A) (A) (A) (A) (A) (A) (A) (A) (A) (A) (A) (A)
                 (A) (A) (A) (A) (A) (A) (A) (A) (A) (A) (A) (A)
                 (A) (A) (A) (A) (A) (A) (A) (A) (A) (A) (A) (A)
                 (A) (A) (A) (A) (A) (A) (A) (A) (A) (A) (A) (A)
                 (A) (A) (A) (A) (A) (A) (A) (A) (A) (A) (A) (A)
                 (A) (A) (A) (A) (A) (A) (A) (A) (A) (A) (A) (A)
                 (A) (A) (A) (A) (A) (A) (A) (A) (A) (A) (A) (A)
                 (A) (A) (A) (A) (A) (A) (A) (A) (A) (A) (A) (A)
                 (A) (A) (A) (A) (A) (A) (A) (A) (A) (A) (A) (A)
                 (A) (A) (A) (A) (A) (A) (A) (A) (A) (A) (A) (A)
                 (A) (A) (A) (A) (A) (A) (A) (A) (A) (A) (A) (A)
                 (A) (A) (A) (A) (A) (A) (A) (A) (A) (A) (A) (A)
                 (A) (A) (A) (A) (A) (A) (A) (A) (A) (A) (A) (A)
                 (A) (A) (A) (A) (A) (A) (A) (A) (A) (A) (A) (A)
                 (A) (A) (A) (A) (A) (A) (A) (A) (A) (A) (A) (A)
                 (A) (A) (A) (A) (A) (A) (A) (A) (A) (A) (A) (A)
                 (A) (A) (A) (A) (A) (A) (A) (A) (A) (A) (A) (A)
                 (A) (A) (A) (A) (A) (A) (A) (A) (A) (A) (A) (A)
                 (A) (A) (A) (A) (A) (A) (A) (A) (A) (A) (A) (A)
                 (A) (A) (A) (A) (A) (A) (A) (A) (A) (A) (A) (A)
                 (A) (A) (A) (A) (A) (A) (A) (A) (A) (A) (A) (A)
                 (A) (A) (A) (A) (A) (A) (A) (A) (A) (A) (A) (A)
                 (A) (A) (A) (A) (A) (A) (A) (A) (A) (A) (A) (A)
                 (A) (A) (A) (A) (A) (A) (A) (A) (A) (A) (A) (A)
                 (A) (A) (A) (A) (A) (A) (A) (A) (A) (A) (A) (A)
                 (A) (A) (A) (A) (A) (A) (A) (A) (A) (A) (A) (A)
                 (A) (A) (A) (A) (A) (A) (A) (A) (A) (A) (A) (A)
                 (A) (A) (A) (A) (A) (A) (A) (A) (A) (A) (A) (A)
                 (A) (A) (A) (A) (A) (A) (A) (A) (A) (A) (A) (A)
                 (A) (A) (A) (A) (A) (A) (A) (A) (A) (A) (A) (A)
                 (A) (A) (A) (A) (A) (A) (A) (A) (A) (A) (A) (A)
                 (A) (A) (A) (A) (A) (A) (A) (A) (A) (A) (A) (A)
                 (A) (A) (A) (A) (A) (A) (A) (A) (A) (A) (A) (A)
                 (A) (A) (A) (A) (A) (A) (A) (A) (A) (A) (A) (A)
                 (A) (A) (A) (A) (A) (A) (A) (A) (A) (A) (A) (A)
                 (A) (A) (A) (A) (A) (A) (A) (A) (A) (A) (A) (A)
                 (A) (A) (A) (A) (A) (A) (A) (A) (A) (A) (A) (A)
                 (A) (A) (A) (A) (A) (A) (A) (A) (A) (A) (A) (A)
                 (A) (A) (A) (A) (A) (A) (A) (A) (A) (A) (A) (A)
                 (A) (A) (A) (A) (A) (A) (A) (A) (A) (A) (A) (A)
                 (A) (A) (A) (A) (A) (A) (A) (A) (A) (A) (A) (A)
                 (A) (A) (A) (A) (A) (A) (A) (A) (A) (A) (A) (A)
                 (A) (A) (A) (A) (A) (A) (A) (A) (A) (A) (A) (A)
                 (A) (A) (A) (A) (A) (A) (A) (A) (A) (A) (A) (A)
                 (A) (A) (A) (A) (A) (A) (A) (A) (A) (A) (A) (A)
                 (A) (A) (A) (A) (A) (A) (A) (A) (A) (A) (A) (A)
                 (A) (A) (A) (A) (A) (A) (A) (A) (A) (A) (A) (A)
                 (A) (A) (A) (A) (A) (A) (A) (A) (A) (A) (A) (A)
                 (A) (A) (A) (A) (A) (A) (A) (A) (A) (A) (A) (A)
                 (A) (A) (A) (A) (A) (A) (A) (A) (A) (A) (A) (A)
                 (A) (A) (A) (A) (A) (A) (A) (A) (A) (A) (A) (A)
                 (A) (A) (A) (A) (A) (A) (A) (A) (A) (A) (A) (A)
                 (A) (A) (A) (A) (A) (A) (A) (A) (A) (A) (A) (A)
                 (A) (A) (A) (A) (A) (A) (A) (A) (A) (A) (A) (A)
                 (A) (A) (A) (A) (A) (A) (A) (A) (A) (A) (A) (A)
                 (A) (A) (A) (A) (A) (A) (A) (A) (A) (A) (A) (A)
                 (A) (A) (A) (A) (A) (A) (A) (A) (A) (A) (A) (A)
                 (A) (A) (A) (A) (A) (A) (A) (A) (A) (A) (A) (A)
                 (A) (A) (A) (A) (A) (A) (A) (A) (A) (A) (A) (A)
                 (A) (A) (A) (A) (A) (A) (A) (A) (A) (A) (A) (A)
                 (A) (A) (A) (A) (A) (A) (A) (A) (A) (A) (A) (A)
                 (A) (A) (A) (A) (A) (A) (A) (A) (A) (A) (A) (A)
                 (A) (A) (A) (A) (A) (A) (A) (A) (A) (A) (A) (A)
                 (A) (A) (A) (A) (A) (A) (A) (A) (A) (A) (A) (A)
                 (A) (A) (A) (A) (A) (A) (A) (A) (A) (A) (A) (A)
                 (A) (A) (A) (A) (A) (A) (A) (A) (A) (A) (A) (A)
                 (A) (A) (A) (A) (A) (A) (A) (A) (A) (A) (A) (A)
                 (A) (A) (A) (A) (A) (A) (A) (A) (A) (A) (A) (A)
                 (A) (A) (A) (A) (A) (A) (A) (A) (A) (A) (A) (A)
                 (A) (A) (A) (A) (A) (A) (A) (A) (A) (A) (A) (A)
                 (A) (A) (A) (A) (A) (A) (A) (A) (A) (A) (A) (A)
                 (A) (A) (A) (A) (A) (A) (A) (A) (A) (A) (A) (A)
                 (A) (A) (A) (A) (A) (A) (A) (A) (A) (A) (A) (A)
                 (A) (A) (A) (A) (A) (A) (A) (A) (A) (A) (A) (A)
                 (A) (A) (A) (A) (A) (A) (A) (A) (A) (A) (A) (A)
                 (A) (A) (A) (A) (A) (A) (A) (A) (A) (A) (A) (A)
                 (A) (A) (A) (A) (A) (A) (A) (A) (A) (A) (A) (A)
                 (A) (A) (A) (A) (A) (A) (A) (A) (A) (A) (A) (A)
                 (A) (A) (A) (A) (A) (A) (A) (A) (A) (A) (A) (A)
                 (A) (A) (A) (A) (A) (A) (A) (A) (A) (A) (A) (A)
                 (A) (A) (A) (A) (A) (A) (A) (A) (A) (A) (A) (A)
                 (A) (A) (A) (A) (A) (A) (A) (A) (A) (A) (A) (A)
                 (A) (A) (A) (A) (A) (A) (A) (A) (A) (A) (A) (A)
                 (A) (A) (A) (A) (A) (A) (A) (A) (A) (A) (A) (A)
                 (A) (A) (A) (A) (A) (A) (A) (A) (A) (A) (A) (A)
                 (A) (A) (A) (A) (A) (A) (A) (A) (A) (A) (A) (A)
                 (A) (A) (A) (A) (A) (A) (A) (A) (A) (A) (A) (A)
                 (A) (A) (A) (A) (A) (A) (A) (A) (A) (A) (A) (A)
                 (A) (A) (A) (A) (A) (A) (A) (A) (A) (A) (A) (A)
                 (A) (A) (A) (A) (A) (A) (A) (A) (A) (A) (A) (A)
                 (A) (A) (A) (A) (A) (A) (A) (A) (A) (A) (A) (A)
                 (A) (A) (A) (A) (A) (A) (A) (A) (A) (A) (A) (A)
                 (A) (A) (A) (A) (A) (A) (A) (A) (A) (A) (A) (A)
                 (A) (A) (A) (A) (A) (A) (A) (A) (A) (A) (A) (A)
                 (A) (A) (A) (A) (A) (A) (A) (A) (A) (A) (A) (A)
                 (A) (A) (A) (A) (A) (A) (A) (A) (A) (A) (A) (A)
                 (A) (A) (A) (A) (A) (A) (A) (A) (A) (A) (A) (A)
                 (A) (A) (A) (A) (A) (A) (A) (A) (A) (A) (A) (A)
                 (A) (A) (A) (A) (A) (A) (A) (A) (A) (A) (A) (A)
                 (A) (A) (A) (A) (A) (A) (A)
    40 initial guesses have been made.
 Convergence on wavefunction:    0.001000000000000
 Iteration     1 Dimension    40 NMult     0 NNew     40
 CISAX will form    40 AO SS matrices at one time.
 New state      4 was old state      5
 New state      5 was old state      4
 New state      6 was old state     11
 New state      7 was old state     15
 New state      8 was old state      9
 New state      9 was old state     27
 Iteration     2 Dimension    60 NMult    40 NNew     20
 New state      5 was old state      6
 New state      6 was old state      5
 Iteration     3 Dimension    80 NMult    60 NNew     20
 Iteration     4 Dimension   100 NMult    80 NNew     20
 Iteration     5 Dimension   120 NMult   100 NNew     20
 New state      9 was old state     10
 New state     10 was old state      9
 Iteration     6 Dimension   138 NMult   120 NNew     18
 Iteration     7 Dimension   148 NMult   138 NNew     10
 Iteration     8 Dimension   156 NMult   148 NNew      8
 Iteration     9 Dimension   162 NMult   156 NNew      6
 Iteration    10 Dimension   168 NMult   162 NNew      6
 Iteration    11 Dimension   174 NMult   168 NNew      6
 Iteration    12 Dimension   180 NMult   174 NNew      6
 Iteration    13 Dimension   184 NMult   180 NNew      4
 Iteration    14 Dimension   188 NMult   184 NNew      4
 Iteration    15 Dimension   192 NMult   188 NNew      4
 Iteration    16 Dimension   196 NMult   192 NNew      4
 Iteration    17 Dimension   200 NMult   196 NNew      4
 Iteration    18 Dimension   204 NMult   200 NNew      4
 Iteration    19 Dimension   206 NMult   204 NNew      2
 Iteration    20 Dimension   208 NMult   206 NNew      2
 Convergence on energies, max DE= 7.17D-06.
 ***********************************************************************
 Excited states from <AA,BB:AA,BB> singles matrix:
 ***********************************************************************
 
 Ground to excited state transition densities written to RWF  633
 Ground to excited state transition electric dipole moments (Au):
       state          X           Y           Z        Dip. S.      Osc.
         1        -5.6181      0.2461     -0.1775     31.6556      1.8153
         2        -1.2132      0.0848      0.3615      1.6096      0.1298
         3        -1.0625     -1.0250     -0.3803      2.3241      0.2057
         4         1.4272      0.7179      0.1940      2.5897      0.2441
         5        -0.2467     -0.0981      0.4610      0.2830      0.0275
         6        -0.2089      0.3798      0.0885      0.1957      0.0193
         7        -0.0122     -1.1334     -0.3857      1.4334      0.1460
         8        -1.0460     -0.1310     -0.0818      1.1179      0.1209
         9        -0.0107     -0.9096     -0.0409      0.8291      0.0918
        10        -0.1819     -0.2763      0.2075      0.1525      0.0170
 Ground to excited state transition velocity dipole moments (Au):
       state          X           Y           Z        Dip. S.      Osc.
         1         0.4800     -0.0198      0.0154      0.2310      1.7902
         2         0.1461     -0.0116     -0.0438      0.0234      0.1290
         3         0.1382      0.1335      0.0499      0.0394      0.1978
         4        -0.2003     -0.1005     -0.0276      0.0510      0.2404
         5         0.0357      0.0138     -0.0671      0.0060      0.0273
         6         0.0307     -0.0566     -0.0132      0.0043      0.0195
         7         0.0021      0.1717      0.0586      0.0329      0.1437
         8         0.1675      0.0214      0.0128      0.0287      0.1179
         9         0.0018      0.1497      0.0069      0.0225      0.0902
        10         0.0304      0.0450     -0.0329      0.0040      0.0161
 Ground to excited state transition magnetic dipole moments (Au):
       state          X           Y           Z
         1        -0.0152      0.2229      1.3267
         2         0.1503     -0.7040      1.2730
         3        -0.1104      0.5446     -0.6418
         4        -0.0174     -0.1305      0.3218
         5        -0.0497      1.2666      1.1577
         6        -0.0209     -0.2624      0.8879
         7        -0.1432      0.7124     -1.9818
         8         0.1209     -0.2960      0.2312
         9         0.2526     -0.0801      2.0478
        10         0.1456      0.4399      1.9418
 Ground to excited state transition velocity quadrupole moments (Au):
       state          XX          YY          ZZ          XY          XZ          YZ
         1        -4.8809      0.0145     -0.0290     -0.2343     -0.4314     -0.1286
         2         8.5786     -0.0149      0.0729      1.2400      0.8705     -0.1596
         3        -0.6407      0.7986      0.0134     -1.7160     -0.9121      0.1923
         4        -3.8440     -0.5055     -0.0293      0.4404      0.2665      0.0245
         5         0.4593      0.0974      0.0332      0.1463     -1.1254     -0.0302
         6        -1.9168     -0.2518     -0.0135      0.4298      0.2172      0.0542
         7        -1.9010      0.5429     -0.0112     -2.7670     -0.9277      0.2924
         8         2.6665      0.4126      0.0436     -0.1428      0.2081     -0.1925
         9        -0.1411      0.4480     -0.0889      3.3002      0.1073      0.2259
        10         0.7814      0.0849     -0.0371      2.3766     -0.4064      0.0083
 <0|del|b> * <b|rxdel|0> + <0|del|b> * <b|delr+rdel|0>
 Rotatory Strengths (R) in cgs (10**-40 erg-esu-cm/Gauss)
       state          XX          YY          ZZ    R(velocity)    E-M Angle
         1        16.1603   -184.6277    240.7129     24.0818       89.22
         2      -268.2910     -8.2112    126.6567    -49.9485       96.58
         3       204.7071    172.7740   -242.0054     45.1585       81.32
         4        47.2295      4.5965    -13.2293     12.8656       84.36
         5      -131.9490   -171.6447      3.0556   -100.1794      117.82
         6        23.3197    -11.9945      0.5950      3.9734       87.65
         7         7.5920    107.2305    -87.6730      9.0498       89.12
         8       -21.0162    -15.6829    110.3722     24.5577       75.36
         9        18.2392    -16.4479      8.7740      3.5218       89.54
        10      -220.2137     40.1741     12.0095    -56.0101      108.26
 1/2[<0|r|b>*<b|rxdel|0> + (<0|rxdel|b>*<b|r|0>)*]
 Rotatory Strengths (R) in cgs (10**-40 erg-esu-cm/Gauss)
       state          XX          YY          ZZ     R(length)
         1       -60.4221    -38.7864    166.5357     22.4424
         2       128.9132     42.2122   -325.3943    -51.4230
         3       -82.9897    394.7412   -172.5767     46.3916
         4        17.5151     66.2360    -44.1503     13.2003
         5        -8.6707     87.8891   -377.4112    -99.3976
         6        -3.0927     70.4720    -55.5821      3.9324
         7        -1.2398    570.9370   -540.5290      9.7227
         8        89.4396    -27.4164     13.3669     25.1300
         9         1.9181    -51.5272     59.2313      3.2074
        10        18.7285     85.9643   -285.0003    -60.1025
  1/2[<0|del|b>*<b|r|0> + (<0|r|b>*<b|del|0>)*] (Au)
       state          X           Y           Z        Dip. S.   Osc.(frdel)
         1        -2.6965     -0.0049     -0.0027      2.7041      1.8027
         2        -0.1773     -0.0010     -0.0158      0.1941      0.1294
         3        -0.1468     -0.1368     -0.0190      0.3026      0.2017
         4        -0.2859     -0.0722     -0.0054      0.3634      0.2422
         5        -0.0088     -0.0014     -0.0309      0.0411      0.0274
         6        -0.0064     -0.0215     -0.0012      0.0291      0.0194
         7        -0.0000     -0.1946     -0.0226      0.2173      0.1449
         8        -0.1752     -0.0028     -0.0010      0.1791      0.1194
         9        -0.0000     -0.1362     -0.0003      0.1365      0.0910
        10        -0.0055     -0.0124     -0.0068      0.0248      0.0165

 Excitation energies and oscillator strengths:
 
 Excited State   1:      Singlet-A      2.3407 eV  529.68 nm  f=1.8153  <S**2>=0.000
     207 -> 209        0.39864
     208 -> 209        0.53992
 This state for optimization and/or second-order correction.
 Total Energy, E(TD-HF/TD-DFT) =  -3810.85280850    
 Copying the excited state density for this state as the 1-particle RhoCI density.
 
 Excited State   2:      Singlet-A      3.2926 eV  376.55 nm  f=0.1298  <S**2>=0.000
     204 -> 209       -0.10416
     206 -> 209        0.37430
     207 -> 209       -0.32503
     207 -> 210       -0.14345
     208 -> 209        0.17053
     208 -> 210       -0.29336
     208 -> 211       -0.27050
 
 Excited State   3:      Singlet-A      3.6129 eV  343.17 nm  f=0.2057  <S**2>=0.000
     206 -> 210       -0.24239
     207 -> 209       -0.15594
     207 -> 210        0.44061
     208 -> 209        0.14176
     208 -> 210        0.31612
     208 -> 211       -0.19461
 
 Excited State   4:      Singlet-A      3.8474 eV  322.25 nm  f=0.2441  <S**2>=0.000
     204 -> 209       -0.23007
     206 -> 209        0.34065
     206 -> 211        0.10439
     208 -> 209        0.13570
     208 -> 210        0.14273
     208 -> 211        0.42421
     208 -> 217       -0.14714
 
 Excited State   5:      Singlet-A      3.9627 eV  312.88 nm  f=0.0275  <S**2>=0.000
     207 -> 212        0.16756
     207 -> 213       -0.19876
     207 -> 214        0.17158
     207 -> 215        0.11157
     208 -> 212       -0.27507
     208 -> 213        0.34454
     208 -> 214       -0.29614
     208 -> 215       -0.18909
 
 Excited State   6:      Singlet-A      4.0271 eV  307.88 nm  f=0.0193  <S**2>=0.000
     202 -> 209       -0.19659
     203 -> 209       -0.18359
     204 -> 209       -0.18143
     206 -> 209        0.13888
     207 -> 209        0.30462
     207 -> 211       -0.30451
     208 -> 209       -0.26072
     208 -> 211       -0.20369
     208 -> 217       -0.10367
 
 Excited State   7:      Singlet-A      4.1584 eV  298.16 nm  f=0.1460  <S**2>=0.000
     202 -> 209        0.49228
     203 -> 209        0.34367
     206 -> 209        0.13472
     207 -> 211       -0.16786
 
 Excited State   8:      Singlet-A      4.4130 eV  280.95 nm  f=0.1209  <S**2>=0.000
     198 -> 209       -0.25638
     204 -> 209       -0.16535
     207 -> 209        0.16268
     207 -> 211        0.24821
     208 -> 209       -0.16361
     208 -> 214        0.10251
     208 -> 215       -0.10783
     208 -> 217        0.31654
     208 -> 228        0.12491
 
 Excited State   9:      Singlet-A      4.5199 eV  274.31 nm  f=0.0918  <S**2>=0.000
     207 -> 222        0.14004
     207 -> 224       -0.17224
     207 -> 225        0.14601
     207 -> 227        0.11572
     208 -> 218       -0.15672
     208 -> 221        0.12157
     208 -> 222       -0.16252
     208 -> 224        0.20019
     208 -> 225       -0.22508
     208 -> 227       -0.19967
     208 -> 228        0.10949
     208 -> 229        0.10399
     208 -> 230       -0.14323
     208 -> 231        0.12856
 
 Excited State  10:      Singlet-A      4.5466 eV  272.70 nm  f=0.0170  <S**2>=0.000
     198 -> 209        0.19487
     206 -> 209        0.10611
     207 -> 214        0.16778
     207 -> 215       -0.10746
     207 -> 216        0.10010
     207 -> 224       -0.11017
     207 -> 226        0.16174
     207 -> 228        0.11513
     208 -> 214        0.15283
     208 -> 215       -0.12803
     208 -> 216        0.10907
     208 -> 217        0.10116
     208 -> 224        0.15897
     208 -> 226        0.16559
     208 -> 230        0.17086
 SavETr:  write IOETrn=   770 NScale= 10 NData=  16 NLR=1 NState=   10 LETran=     190.

 **********************************************************************

            Population analysis using the SCF Density.

 **********************************************************************

 Orbital symmetries:
       Occupied  (A) (A) (A) (A) (A) (A) (A) (A) (A) (A) (A) (A)
                 (A) (A) (A) (A) (A) (A) (A) (A) (A) (A) (A) (A)
                 (A) (A) (A) (A) (A) (A) (A) (A) (A) (A) (A) (A)
                 (A) (A) (A) (A) (A) (A) (A) (A) (A) (A) (A) (A)
                 (A) (A) (A) (A) (A) (A) (A) (A) (A) (A) (A) (A)
                 (A) (A) (A) (A) (A) (A) (A) (A) (A) (A) (A) (A)
                 (A) (A) (A) (A) (A) (A) (A) (A) (A) (A) (A) (A)
                 (A) (A) (A) (A) (A) (A) (A) (A) (A) (A) (A) (A)
                 (A) (A) (A) (A) (A) (A) (A) (A) (A) (A) (A) (A)
                 (A) (A) (A) (A) (A) (A) (A) (A) (A) (A) (A) (A)
                 (A) (A) (A) (A) (A) (A) (A) (A) (A) (A) (A) (A)
                 (A) (A) (A) (A) (A) (A) (A) (A) (A) (A) (A) (A)
                 (A) (A) (A) (A) (A) (A) (A) (A) (A) (A) (A) (A)
                 (A) (A) (A) (A) (A) (A) (A) (A) (A) (A) (A) (A)
                 (A) (A) (A) (A) (A) (A) (A) (A) (A) (A) (A) (A)
                 (A) (A) (A) (A) (A) (A) (A) (A) (A) (A) (A) (A)
                 (A) (A) (A) (A) (A) (A) (A) (A) (A) (A) (A) (A)
                 (A) (A) (A) (A)
       Virtual   (A) (A) (A) (A) (A) (A) (A) (A) (A) (A) (A) (A)
                 (A) (A) (A) (A) (A) (A) (A) (A) (A) (A) (A) (A)
                 (A) (A) (A) (A) (A) (A) (A) (A) (A) (A) (A) (A)
                 (A) (A) (A) (A) (A) (A) (A) (A) (A) (A) (A) (A)
                 (A) (A) (A) (A) (A) (A) (A) (A) (A) (A) (A) (A)
                 (A) (A) (A) (A) (A) (A) (A) (A) (A) (A) (A) (A)
                 (A) (A) (A) (A) (A) (A) (A) (A) (A) (A) (A) (A)
                 (A) (A) (A) (A) (A) (A) (A) (A) (A) (A) (A) (A)
                 (A) (A) (A) (A) (A) (A) (A) (A) (A) (A) (A) (A)
                 (A) (A) (A) (A) (A) (A) (A) (A) (A) (A) (A) (A)
                 (A) (A) (A) (A) (A) (A) (A) (A) (A) (A) (A) (A)
                 (A) (A) (A) (A) (A) (A) (A) (A) (A) (A) (A) (A)
                 (A) (A) (A) (A) (A) (A) (A) (A) (A) (A) (A) (A)
                 (A) (A) (A) (A) (A) (A) (A) (A) (A) (A) (A) (A)
                 (A) (A) (A) (A) (A) (A) (A) (A) (A) (A) (A) (A)
                 (A) (A) (A) (A) (A) (A) (A) (A) (A) (A) (A) (A)
                 (A) (A) (A) (A) (A) (A) (A) (A) (A) (A) (A) (A)
                 (A) (A) (A) (A) (A) (A) (A) (A) (A) (A) (A) (A)
                 (A) (A) (A) (A) (A) (A) (A) (A) (A) (A) (A) (A)
                 (A) (A) (A) (A) (A) (A) (A) (A) (A) (A) (A) (A)
                 (A) (A) (A) (A) (A) (A) (A) (A) (A) (A) (A) (A)
                 (A) (A) (A) (A) (A) (A) (A) (A) (A) (A) (A) (A)
                 (A) (A) (A) (A) (A) (A) (A) (A) (A) (A) (A) (A)
                 (A) (A) (A) (A) (A) (A) (A) (A) (A) (A) (A) (A)
                 (A) (A) (A) (A) (A) (A) (A) (A) (A) (A) (A) (A)
                 (A) (A) (A) (A) (A) (A) (A) (A) (A) (A) (A) (A)
                 (A) (A) (A) (A) (A) (A) (A) (A) (A) (A) (A) (A)
                 (A) (A) (A) (A) (A) (A) (A) (A) (A) (A) (A) (A)
                 (A) (A) (A) (A) (A) (A) (A) (A) (A) (A) (A) (A)
                 (A) (A) (A) (A) (A) (A) (A) (A) (A) (A) (A) (A)
                 (A) (A) (A) (A) (A) (A) (A) (A) (A) (A) (A) (A)
                 (A) (A) (A) (A) (A) (A) (A) (A) (A) (A) (A) (A)
                 (A) (A) (A) (A) (A) (A) (A) (A) (A) (A) (A) (A)
                 (A) (A) (A) (A) (A) (A) (A) (A) (A) (A) (A) (A)
                 (A) (A) (A) (A) (A) (A) (A) (A) (A) (A) (A) (A)
                 (A) (A) (A) (A) (A) (A) (A) (A) (A) (A) (A) (A)
                 (A) (A) (A) (A) (A) (A) (A) (A) (A) (A) (A) (A)
                 (A) (A) (A) (A) (A) (A) (A) (A) (A) (A) (A) (A)
                 (A) (A) (A) (A) (A) (A) (A) (A) (A) (A) (A) (A)
                 (A) (A) (A) (A) (A) (A) (A) (A) (A) (A) (A) (A)
                 (A) (A) (A) (A) (A) (A) (A) (A) (A) (A) (A) (A)
                 (A) (A) (A) (A) (A) (A) (A) (A) (A) (A) (A) (A)
                 (A) (A) (A) (A) (A) (A) (A) (A) (A) (A) (A) (A)
                 (A) (A) (A) (A) (A) (A) (A) (A) (A) (A) (A) (A)
                 (A) (A) (A) (A) (A) (A) (A) (A) (A) (A) (A) (A)
                 (A) (A) (A) (A) (A) (A) (A) (A) (A) (A) (A) (A)
                 (A) (A) (A) (A) (A) (A) (A) (A) (A) (A) (A) (A)
                 (A) (A) (A) (A) (A) (A) (A) (A) (A) (A) (A) (A)
                 (A) (A) (A) (A) (A) (A) (A) (A) (A) (A) (A) (A)
                 (A) (A) (A) (A) (A) (A) (A) (A) (A) (A) (A) (A)
                 (A) (A) (A) (A) (A) (A) (A) (A) (A) (A) (A) (A)
                 (A) (A) (A) (A) (A) (A) (A) (A) (A) (A) (A) (A)
                 (A) (A) (A) (A) (A) (A) (A) (A) (A) (A) (A) (A)
                 (A) (A) (A) (A) (A) (A) (A) (A) (A) (A) (A) (A)
                 (A) (A) (A) (A) (A) (A) (A) (A) (A) (A) (A) (A)
                 (A) (A) (A) (A) (A) (A) (A) (A) (A) (A) (A) (A)
                 (A) (A) (A) (A) (A) (A) (A) (A) (A) (A) (A) (A)
                 (A) (A) (A) (A) (A) (A) (A) (A) (A) (A) (A) (A)
                 (A) (A) (A) (A) (A) (A) (A) (A) (A) (A) (A) (A)
                 (A) (A) (A) (A) (A) (A) (A) (A) (A) (A) (A) (A)
                 (A) (A) (A) (A) (A) (A) (A) (A) (A) (A) (A) (A)
                 (A) (A) (A) (A) (A) (A) (A) (A) (A) (A) (A) (A)
                 (A) (A) (A) (A) (A) (A) (A) (A) (A) (A) (A) (A)
                 (A) (A) (A) (A) (A) (A) (A) (A) (A) (A) (A) (A)
                 (A) (A) (A) (A) (A) (A) (A) (A) (A) (A) (A) (A)
                 (A) (A) (A) (A) (A) (A) (A) (A) (A) (A) (A) (A)
                 (A) (A) (A) (A) (A) (A) (A) (A) (A) (A) (A) (A)
                 (A) (A) (A) (A) (A) (A) (A) (A) (A) (A) (A) (A)
                 (A) (A) (A) (A) (A) (A) (A) (A) (A) (A) (A) (A)
                 (A) (A) (A) (A) (A) (A) (A) (A) (A) (A) (A) (A)
                 (A) (A) (A) (A) (A) (A) (A) (A) (A) (A) (A) (A)
                 (A) (A) (A) (A) (A) (A) (A) (A) (A) (A) (A) (A)
                 (A) (A) (A) (A) (A) (A) (A) (A) (A) (A) (A) (A)
                 (A) (A) (A) (A) (A) (A) (A) (A) (A) (A) (A) (A)
                 (A) (A) (A) (A) (A) (A) (A) (A) (A) (A) (A) (A)
                 (A) (A) (A) (A) (A) (A) (A) (A) (A) (A) (A) (A)
                 (A) (A) (A) (A) (A) (A) (A) (A) (A) (A) (A) (A)
                 (A) (A) (A) (A) (A) (A) (A) (A) (A) (A) (A) (A)
                 (A) (A) (A) (A) (A) (A) (A) (A) (A) (A) (A) (A)
                 (A) (A) (A) (A) (A) (A) (A) (A) (A) (A) (A) (A)
                 (A) (A) (A) (A) (A) (A) (A) (A) (A) (A) (A) (A)
                 (A) (A) (A) (A) (A) (A) (A) (A) (A) (A) (A) (A)
                 (A) (A) (A) (A) (A) (A) (A) (A) (A) (A) (A) (A)
                 (A) (A) (A) (A) (A) (A) (A) (A) (A) (A) (A) (A)
                 (A) (A) (A) (A) (A) (A) (A) (A) (A) (A) (A) (A)
                 (A) (A) (A) (A) (A) (A) (A) (A) (A) (A) (A) (A)
                 (A) (A) (A) (A) (A) (A) (A) (A) (A) (A) (A) (A)
                 (A) (A) (A) (A) (A) (A) (A) (A) (A) (A) (A) (A)
                 (A) (A) (A) (A) (A) (A) (A) (A) (A) (A) (A) (A)
                 (A) (A) (A) (A) (A) (A) (A) (A) (A) (A) (A) (A)
                 (A) (A) (A) (A) (A) (A) (A) (A) (A) (A) (A) (A)
                 (A) (A) (A) (A) (A) (A) (A) (A) (A) (A) (A) (A)
                 (A) (A) (A) (A) (A) (A) (A) (A) (A) (A) (A) (A)
                 (A) (A) (A) (A) (A) (A) (A) (A) (A) (A) (A) (A)
                 (A) (A) (A) (A) (A) (A) (A) (A) (A) (A) (A) (A)
                 (A) (A) (A) (A) (A) (A) (A) (A) (A) (A) (A) (A)
                 (A) (A) (A) (A) (A) (A) (A) (A) (A) (A) (A) (A)
                 (A) (A) (A) (A) (A) (A) (A) (A) (A) (A) (A) (A)
                 (A) (A) (A) (A) (A) (A) (A) (A) (A) (A) (A) (A)
                 (A) (A) (A) (A) (A) (A) (A) (A) (A) (A) (A) (A)
                 (A) (A) (A) (A) (A) (A) (A) (A) (A) (A) (A) (A)
                 (A) (A) (A) (A) (A) (A) (A) (A) (A) (A) (A) (A)
                 (A) (A) (A) (A) (A) (A) (A) (A) (A) (A) (A) (A)
                 (A) (A) (A) (A) (A) (A) (A) (A) (A) (A) (A) (A)
                 (A) (A) (A) (A) (A) (A) (A) (A) (A) (A) (A) (A)
                 (A) (A) (A) (A) (A) (A) (A) (A) (A) (A) (A) (A)
                 (A) (A) (A) (A) (A) (A) (A) (A) (A) (A) (A) (A)
                 (A) (A) (A) (A) (A) (A) (A) (A) (A) (A) (A) (A)
                 (A) (A) (A) (A) (A) (A) (A) (A) (A) (A) (A) (A)
                 (A) (A) (A) (A) (A) (A) (A) (A) (A) (A) (A) (A)
                 (A) (A) (A) (A) (A) (A) (A) (A) (A) (A) (A) (A)
                 (A) (A) (A) (A) (A) (A) (A) (A) (A) (A) (A) (A)
                 (A) (A) (A) (A) (A) (A) (A)
 The electronic state is 1-A.
 Alpha  occ. eigenvalues --  -89.11189 -89.10777 -89.09713 -89.09515 -19.33067
 Alpha  occ. eigenvalues --  -19.32687 -19.31289 -19.31143 -19.27041 -19.26373
 Alpha  occ. eigenvalues --  -14.48614 -14.45353 -10.44691 -10.44599 -10.38804
 Alpha  occ. eigenvalues --  -10.37147 -10.37138 -10.37082 -10.36956 -10.36782
 Alpha  occ. eigenvalues --  -10.36588 -10.36277 -10.36134 -10.36003 -10.35828
 Alpha  occ. eigenvalues --  -10.35737 -10.35729 -10.35625 -10.35456 -10.34813
 Alpha  occ. eigenvalues --  -10.34785 -10.34516 -10.34429 -10.34423 -10.34047
 Alpha  occ. eigenvalues --  -10.33760 -10.33670 -10.32578 -10.32350 -10.32286
 Alpha  occ. eigenvalues --  -10.31828 -10.31540 -10.31480 -10.31390 -10.31258
 Alpha  occ. eigenvalues --  -10.31245 -10.31236 -10.31211 -10.31082 -10.30929
 Alpha  occ. eigenvalues --  -10.30901 -10.30821 -10.30754 -10.30731 -10.30687
 Alpha  occ. eigenvalues --   -8.12884  -8.12404  -8.11332  -8.11159  -6.07753
 Alpha  occ. eigenvalues --   -6.07367  -6.07266  -6.06985  -6.06904  -6.06506
 Alpha  occ. eigenvalues --   -6.06226  -6.06022  -6.05836  -6.05659  -6.05373
 Alpha  occ. eigenvalues --   -6.05263  -1.22641  -1.21766  -1.18334  -1.18193
 Alpha  occ. eigenvalues --   -1.13721  -1.13645  -1.07926  -1.04669  -1.03697
 Alpha  occ. eigenvalues --   -1.01352  -1.00176  -0.98116  -0.97510  -0.97225
 Alpha  occ. eigenvalues --   -0.95898  -0.95082  -0.94012  -0.90576  -0.89205
 Alpha  occ. eigenvalues --   -0.87784  -0.87758  -0.87259  -0.86508  -0.86427
 Alpha  occ. eigenvalues --   -0.86120  -0.85724  -0.84858  -0.84513  -0.83982
 Alpha  occ. eigenvalues --   -0.82934  -0.81161  -0.81028  -0.80695  -0.79295
 Alpha  occ. eigenvalues --   -0.76898  -0.74835  -0.73622  -0.73438  -0.72925
 Alpha  occ. eigenvalues --   -0.72732  -0.72127  -0.71800  -0.70551  -0.70047
 Alpha  occ. eigenvalues --   -0.68405  -0.67664  -0.66581  -0.66386  -0.65576
 Alpha  occ. eigenvalues --   -0.65275  -0.64687  -0.64406  -0.64210  -0.63274
 Alpha  occ. eigenvalues --   -0.62526  -0.61500  -0.60855  -0.59612  -0.59276
 Alpha  occ. eigenvalues --   -0.58765  -0.58729  -0.58250  -0.57889  -0.57070
 Alpha  occ. eigenvalues --   -0.56973  -0.56818  -0.56621  -0.56053  -0.55623
 Alpha  occ. eigenvalues --   -0.55064  -0.54874  -0.54779  -0.54584  -0.54268
 Alpha  occ. eigenvalues --   -0.53830  -0.53594  -0.53360  -0.52634  -0.52448
 Alpha  occ. eigenvalues --   -0.52265  -0.52066  -0.52014  -0.51692  -0.51228
 Alpha  occ. eigenvalues --   -0.51154  -0.50583  -0.50507  -0.50092  -0.49892
 Alpha  occ. eigenvalues --   -0.49705  -0.49495  -0.49109  -0.48593  -0.48315
 Alpha  occ. eigenvalues --   -0.48142  -0.48027  -0.47866  -0.47558  -0.47203
 Alpha  occ. eigenvalues --   -0.46870  -0.46399  -0.46079  -0.45890  -0.45683
 Alpha  occ. eigenvalues --   -0.45380  -0.45255  -0.45020  -0.44837  -0.44413
 Alpha  occ. eigenvalues --   -0.43902  -0.43354  -0.43049  -0.42863  -0.42404
 Alpha  occ. eigenvalues --   -0.42226  -0.42165  -0.42079  -0.41968  -0.41592
 Alpha  occ. eigenvalues --   -0.41376  -0.40286  -0.39722  -0.37965  -0.37486
 Alpha  occ. eigenvalues --   -0.37040  -0.35918  -0.35499  -0.35158  -0.34472
 Alpha  occ. eigenvalues --   -0.34415  -0.34190  -0.34116  -0.33235  -0.31623
 Alpha  occ. eigenvalues --   -0.30393  -0.26966  -0.24659
 Alpha virt. eigenvalues --   -0.06507  -0.02022  -0.00212   0.02324   0.02469
 Alpha virt. eigenvalues --    0.02694   0.02931   0.03106   0.03364   0.03709
 Alpha virt. eigenvalues --    0.03782   0.03874   0.04170   0.04267   0.04477
 Alpha virt. eigenvalues --    0.04533   0.04611   0.04757   0.04902   0.04974
 Alpha virt. eigenvalues --    0.05059   0.05188   0.05289   0.05525   0.05677
 Alpha virt. eigenvalues --    0.05945   0.06014   0.06165   0.06277   0.06450
 Alpha virt. eigenvalues --    0.06546   0.06673   0.06750   0.06962   0.06979
 Alpha virt. eigenvalues --    0.07102   0.07337   0.07362   0.07771   0.08002
 Alpha virt. eigenvalues --    0.08084   0.08320   0.08499   0.08606   0.08951
 Alpha virt. eigenvalues --    0.08997   0.09161   0.09254   0.09378   0.09565
 Alpha virt. eigenvalues --    0.09670   0.09918   0.09931   0.10015   0.10424
 Alpha virt. eigenvalues --    0.10549   0.10636   0.10787   0.10946   0.11059
 Alpha virt. eigenvalues --    0.11229   0.11372   0.11544   0.11792   0.11985
 Alpha virt. eigenvalues --    0.12052   0.12189   0.12388   0.12487   0.12628
 Alpha virt. eigenvalues --    0.12725   0.12826   0.12995   0.13055   0.13338
 Alpha virt. eigenvalues --    0.13377   0.13478   0.13566   0.13650   0.13662
 Alpha virt. eigenvalues --    0.13860   0.13914   0.13992   0.14042   0.14172
 Alpha virt. eigenvalues --    0.14312   0.14333   0.14473   0.14525   0.14627
 Alpha virt. eigenvalues --    0.14753   0.14836   0.14909   0.15106   0.15212
 Alpha virt. eigenvalues --    0.15259   0.15419   0.15471   0.15676   0.15808
 Alpha virt. eigenvalues --    0.15853   0.15908   0.16105   0.16221   0.16332
 Alpha virt. eigenvalues --    0.16512   0.16576   0.16748   0.16757   0.16959
 Alpha virt. eigenvalues --    0.17116   0.17156   0.17315   0.17400   0.17582
 Alpha virt. eigenvalues --    0.17700   0.17707   0.18008   0.18148   0.18173
 Alpha virt. eigenvalues --    0.18269   0.18366   0.18487   0.18680   0.18929
 Alpha virt. eigenvalues --    0.18976   0.19011   0.19155   0.19279   0.19419
 Alpha virt. eigenvalues --    0.19441   0.19518   0.19599   0.19694   0.19792
 Alpha virt. eigenvalues --    0.20008   0.20102   0.20213   0.20375   0.20558
 Alpha virt. eigenvalues --    0.20729   0.20772   0.20912   0.21155   0.21378
 Alpha virt. eigenvalues --    0.21497   0.21522   0.21631   0.21748   0.21863
 Alpha virt. eigenvalues --    0.22022   0.22178   0.22259   0.22520   0.22662
 Alpha virt. eigenvalues --    0.22808   0.22913   0.23106   0.23127   0.23213
 Alpha virt. eigenvalues --    0.23503   0.23670   0.23723   0.23752   0.24068
 Alpha virt. eigenvalues --    0.24174   0.24338   0.24602   0.24676   0.24678
 Alpha virt. eigenvalues --    0.24803   0.24906   0.25069   0.25204   0.25398
 Alpha virt. eigenvalues --    0.25485   0.25674   0.25887   0.26053   0.26357
 Alpha virt. eigenvalues --    0.26384   0.26404   0.26532   0.26626   0.26741
 Alpha virt. eigenvalues --    0.26929   0.27075   0.27181   0.27308   0.27356
 Alpha virt. eigenvalues --    0.27400   0.27520   0.27603   0.27630   0.27760
 Alpha virt. eigenvalues --    0.27945   0.28076   0.28209   0.28422   0.28469
 Alpha virt. eigenvalues --    0.28637   0.28684   0.28831   0.28958   0.29055
 Alpha virt. eigenvalues --    0.29151   0.29200   0.29333   0.29457   0.29634
 Alpha virt. eigenvalues --    0.29662   0.29911   0.30061   0.30139   0.30260
 Alpha virt. eigenvalues --    0.30334   0.30420   0.30576   0.30689   0.30800
 Alpha virt. eigenvalues --    0.30922   0.31045   0.31136   0.31284   0.31380
 Alpha virt. eigenvalues --    0.31530   0.31583   0.31662   0.31811   0.32018
 Alpha virt. eigenvalues --    0.32042   0.32157   0.32226   0.32346   0.32361
 Alpha virt. eigenvalues --    0.32470   0.32564   0.32597   0.32860   0.32866
 Alpha virt. eigenvalues --    0.33033   0.33248   0.33297   0.33370   0.33503
 Alpha virt. eigenvalues --    0.33567   0.33664   0.33821   0.33977   0.34077
 Alpha virt. eigenvalues --    0.34150   0.34241   0.34320   0.34400   0.34537
 Alpha virt. eigenvalues --    0.34569   0.34613   0.34716   0.34889   0.34961
 Alpha virt. eigenvalues --    0.35041   0.35179   0.35366   0.35412   0.35568
 Alpha virt. eigenvalues --    0.35637   0.35875   0.36084   0.36183   0.36267
 Alpha virt. eigenvalues --    0.36400   0.36469   0.36566   0.36695   0.36869
 Alpha virt. eigenvalues --    0.36917   0.37058   0.37139   0.37268   0.37375
 Alpha virt. eigenvalues --    0.37409   0.37568   0.37629   0.37767   0.37818
 Alpha virt. eigenvalues --    0.37897   0.38179   0.38319   0.38392   0.38516
 Alpha virt. eigenvalues --    0.38593   0.38645   0.38824   0.38904   0.39005
 Alpha virt. eigenvalues --    0.39163   0.39379   0.39612   0.39722   0.39897
 Alpha virt. eigenvalues --    0.39965   0.40034   0.40175   0.40418   0.40583
 Alpha virt. eigenvalues --    0.40732   0.40827   0.40951   0.41143   0.41286
 Alpha virt. eigenvalues --    0.41324   0.41418   0.41484   0.41647   0.41935
 Alpha virt. eigenvalues --    0.41945   0.42062   0.42321   0.42440   0.42516
 Alpha virt. eigenvalues --    0.42694   0.42739   0.42985   0.43142   0.43360
 Alpha virt. eigenvalues --    0.43411   0.43590   0.43710   0.43838   0.43967
 Alpha virt. eigenvalues --    0.44145   0.44279   0.44340   0.44518   0.44659
 Alpha virt. eigenvalues --    0.44786   0.44868   0.45023   0.45155   0.45230
 Alpha virt. eigenvalues --    0.45412   0.45499   0.45551   0.45689   0.45888
 Alpha virt. eigenvalues --    0.45981   0.46292   0.46529   0.46671   0.46764
 Alpha virt. eigenvalues --    0.46866   0.47022   0.47096   0.47314   0.47475
 Alpha virt. eigenvalues --    0.47643   0.47797   0.47975   0.48126   0.48506
 Alpha virt. eigenvalues --    0.48738   0.48881   0.49142   0.49212   0.49431
 Alpha virt. eigenvalues --    0.49595   0.49690   0.49822   0.49979   0.50230
 Alpha virt. eigenvalues --    0.50377   0.50522   0.50668   0.50909   0.51143
 Alpha virt. eigenvalues --    0.51368   0.51536   0.51638   0.51690   0.51816
 Alpha virt. eigenvalues --    0.52079   0.52346   0.52489   0.52600   0.52837
 Alpha virt. eigenvalues --    0.53049   0.53203   0.53343   0.53493   0.53808
 Alpha virt. eigenvalues --    0.53896   0.53994   0.54144   0.54404   0.54542
 Alpha virt. eigenvalues --    0.54647   0.54746   0.55067   0.55131   0.55199
 Alpha virt. eigenvalues --    0.55300   0.55602   0.55740   0.56036   0.56245
 Alpha virt. eigenvalues --    0.56320   0.56489   0.56589   0.56702   0.56864
 Alpha virt. eigenvalues --    0.57085   0.57302   0.57407   0.57546   0.57644
 Alpha virt. eigenvalues --    0.57786   0.57961   0.58078   0.58362   0.58527
 Alpha virt. eigenvalues --    0.58681   0.58776   0.58997   0.59232   0.59324
 Alpha virt. eigenvalues --    0.59480   0.59569   0.59685   0.59865   0.59936
 Alpha virt. eigenvalues --    0.60253   0.60379   0.60455   0.60602   0.60936
 Alpha virt. eigenvalues --    0.60987   0.61104   0.61275   0.61401   0.61503
 Alpha virt. eigenvalues --    0.61817   0.61936   0.62063   0.62154   0.62299
 Alpha virt. eigenvalues --    0.62443   0.62524   0.62548   0.62676   0.63054
 Alpha virt. eigenvalues --    0.63150   0.63237   0.63301   0.63420   0.63448
 Alpha virt. eigenvalues --    0.63628   0.63673   0.63681   0.63829   0.64156
 Alpha virt. eigenvalues --    0.64249   0.64266   0.64461   0.64541   0.64626
 Alpha virt. eigenvalues --    0.64822   0.64952   0.65200   0.65222   0.65431
 Alpha virt. eigenvalues --    0.65555   0.65709   0.65771   0.65975   0.66175
 Alpha virt. eigenvalues --    0.66273   0.66545   0.66627   0.66716   0.66832
 Alpha virt. eigenvalues --    0.67077   0.67311   0.67364   0.67490   0.67557
 Alpha virt. eigenvalues --    0.67827   0.67881   0.68138   0.68355   0.68433
 Alpha virt. eigenvalues --    0.68671   0.68765   0.68978   0.69111   0.69122
 Alpha virt. eigenvalues --    0.69458   0.69669   0.69814   0.69847   0.69960
 Alpha virt. eigenvalues --    0.70142   0.70237   0.70323   0.70503   0.70546
 Alpha virt. eigenvalues --    0.70775   0.71004   0.71096   0.71229   0.71381
 Alpha virt. eigenvalues --    0.71428   0.71542   0.71777   0.71887   0.72057
 Alpha virt. eigenvalues --    0.72152   0.72423   0.72537   0.72709   0.72826
 Alpha virt. eigenvalues --    0.72956   0.73063   0.73302   0.73353   0.73442
 Alpha virt. eigenvalues --    0.73588   0.73738   0.73906   0.73995   0.74051
 Alpha virt. eigenvalues --    0.74310   0.74478   0.74484   0.74622   0.74657
 Alpha virt. eigenvalues --    0.74863   0.74942   0.75219   0.75358   0.75432
 Alpha virt. eigenvalues --    0.75504   0.75691   0.75821   0.75986   0.76026
 Alpha virt. eigenvalues --    0.76174   0.76247   0.76353   0.76638   0.76736
 Alpha virt. eigenvalues --    0.76868   0.77030   0.77086   0.77159   0.77392
 Alpha virt. eigenvalues --    0.77551   0.77766   0.77967   0.78032   0.78115
 Alpha virt. eigenvalues --    0.78280   0.78477   0.78603   0.78935   0.78973
 Alpha virt. eigenvalues --    0.79339   0.79460   0.79579   0.79764   0.80063
 Alpha virt. eigenvalues --    0.80204   0.80350   0.80440   0.80735   0.80915
 Alpha virt. eigenvalues --    0.80995   0.81287   0.81664   0.81804   0.82138
 Alpha virt. eigenvalues --    0.82225   0.82575   0.82660   0.82890   0.82970
 Alpha virt. eigenvalues --    0.83295   0.83367   0.83592   0.83607   0.83930
 Alpha virt. eigenvalues --    0.84107   0.84151   0.84460   0.84511   0.84674
 Alpha virt. eigenvalues --    0.84863   0.85023   0.85086   0.85250   0.85326
 Alpha virt. eigenvalues --    0.85604   0.85704   0.85854   0.85922   0.86169
 Alpha virt. eigenvalues --    0.86302   0.86393   0.86655   0.87012   0.87105
 Alpha virt. eigenvalues --    0.87202   0.87373   0.87745   0.87959   0.88247
 Alpha virt. eigenvalues --    0.88343   0.88448   0.88608   0.88779   0.88905
 Alpha virt. eigenvalues --    0.89076   0.89112   0.89530   0.89564   0.89729
 Alpha virt. eigenvalues --    0.89821   0.90053   0.90177   0.90273   0.90653
 Alpha virt. eigenvalues --    0.90862   0.91083   0.91288   0.91371   0.91410
 Alpha virt. eigenvalues --    0.91793   0.91942   0.92168   0.92394   0.92536
 Alpha virt. eigenvalues --    0.92910   0.92990   0.93204   0.93397   0.93479
 Alpha virt. eigenvalues --    0.93730   0.94028   0.94064   0.94137   0.94374
 Alpha virt. eigenvalues --    0.94514   0.94597   0.94818   0.94892   0.95301
 Alpha virt. eigenvalues --    0.95472   0.95644   0.95779   0.96000   0.96163
 Alpha virt. eigenvalues --    0.96672   0.96845   0.97039   0.97186   0.97397
 Alpha virt. eigenvalues --    0.97647   0.97809   0.97891   0.98208   0.98544
 Alpha virt. eigenvalues --    0.98764   0.99163   0.99420   0.99751   0.99929
 Alpha virt. eigenvalues --    1.00023   1.00220   1.00520   1.00749   1.00882
 Alpha virt. eigenvalues --    1.01174   1.01478   1.01713   1.01954   1.02033
 Alpha virt. eigenvalues --    1.02408   1.02825   1.03033   1.03208   1.03376
 Alpha virt. eigenvalues --    1.03448   1.03900   1.03947   1.04476   1.04895
 Alpha virt. eigenvalues --    1.04990   1.05374   1.05468   1.05495   1.06219
 Alpha virt. eigenvalues --    1.06261   1.06482   1.06893   1.07109   1.07351
 Alpha virt. eigenvalues --    1.07463   1.07761   1.07933   1.08119   1.08399
 Alpha virt. eigenvalues --    1.08521   1.08746   1.09071   1.09112   1.09163
 Alpha virt. eigenvalues --    1.09498   1.09614   1.10008   1.10314   1.10685
 Alpha virt. eigenvalues --    1.11004   1.11205   1.11421   1.11642   1.11655
 Alpha virt. eigenvalues --    1.12076   1.12276   1.12345   1.13011   1.13334
 Alpha virt. eigenvalues --    1.13513   1.13859   1.14266   1.14290   1.14568
 Alpha virt. eigenvalues --    1.15060   1.15189   1.15339   1.15653   1.15779
 Alpha virt. eigenvalues --    1.15833   1.16214   1.16888   1.17248   1.17435
 Alpha virt. eigenvalues --    1.17691   1.17840   1.18098   1.18136   1.18531
 Alpha virt. eigenvalues --    1.18782   1.18966   1.19278   1.19583   1.19757
 Alpha virt. eigenvalues --    1.19893   1.20168   1.20324   1.21071   1.21138
 Alpha virt. eigenvalues --    1.21416   1.21685   1.21943   1.22196   1.22425
 Alpha virt. eigenvalues --    1.22625   1.23077   1.23737   1.23950   1.24048
 Alpha virt. eigenvalues --    1.24099   1.24359   1.24704   1.25259   1.25431
 Alpha virt. eigenvalues --    1.26186   1.26255   1.26628   1.26696   1.27165
 Alpha virt. eigenvalues --    1.27344   1.27799   1.28111   1.28516   1.28950
 Alpha virt. eigenvalues --    1.29132   1.29368   1.29481   1.30106   1.30515
 Alpha virt. eigenvalues --    1.30911   1.31126   1.31326   1.31672   1.32526
 Alpha virt. eigenvalues --    1.32984   1.33119   1.33433   1.33869   1.34135
 Alpha virt. eigenvalues --    1.35099   1.35109   1.35745   1.35961   1.36157
 Alpha virt. eigenvalues --    1.36486   1.36780   1.37274   1.37384   1.37718
 Alpha virt. eigenvalues --    1.37920   1.38259   1.38862   1.39003   1.39237
 Alpha virt. eigenvalues --    1.39390   1.39487   1.40002   1.40261   1.40425
 Alpha virt. eigenvalues --    1.40482   1.40688   1.41170   1.41649   1.41971
 Alpha virt. eigenvalues --    1.42069   1.42323   1.42525   1.42962   1.43071
 Alpha virt. eigenvalues --    1.43472   1.43909   1.44257   1.44411   1.44707
 Alpha virt. eigenvalues --    1.45034   1.45369   1.45798   1.46091   1.46531
 Alpha virt. eigenvalues --    1.46598   1.46962   1.47135   1.47355   1.47590
 Alpha virt. eigenvalues --    1.48055   1.48190   1.48577   1.48772   1.49127
 Alpha virt. eigenvalues --    1.49241   1.49817   1.49901   1.50123   1.50569
 Alpha virt. eigenvalues --    1.50858   1.51017   1.51208   1.51647   1.51767
 Alpha virt. eigenvalues --    1.52256   1.52584   1.52750   1.52796   1.53161
 Alpha virt. eigenvalues --    1.53376   1.53631   1.53871   1.54248   1.54553
 Alpha virt. eigenvalues --    1.54838   1.55065   1.55593   1.55658   1.55849
 Alpha virt. eigenvalues --    1.56114   1.56224   1.56502   1.56727   1.56967
 Alpha virt. eigenvalues --    1.57097   1.57338   1.57679   1.57717   1.57831
 Alpha virt. eigenvalues --    1.58003   1.58239   1.58674   1.58758   1.58957
 Alpha virt. eigenvalues --    1.59144   1.59234   1.59554   1.59984   1.60194
 Alpha virt. eigenvalues --    1.60313   1.60368   1.60615   1.60681   1.61020
 Alpha virt. eigenvalues --    1.61233   1.61422   1.61610   1.61998   1.62133
 Alpha virt. eigenvalues --    1.62342   1.62616   1.62801   1.62954   1.63362
 Alpha virt. eigenvalues --    1.63412   1.63761   1.63889   1.64095   1.64514
 Alpha virt. eigenvalues --    1.64564   1.64865   1.64920   1.65123   1.65318
 Alpha virt. eigenvalues --    1.65573   1.65922   1.66023   1.66217   1.66487
 Alpha virt. eigenvalues --    1.66718   1.66981   1.67376   1.67707   1.67820
 Alpha virt. eigenvalues --    1.68229   1.68273   1.68338   1.68845   1.69107
 Alpha virt. eigenvalues --    1.69293   1.69638   1.70012   1.70117   1.70393
 Alpha virt. eigenvalues --    1.70748   1.70765   1.70890   1.71100   1.71578
 Alpha virt. eigenvalues --    1.71811   1.71889   1.71963   1.72189   1.72724
 Alpha virt. eigenvalues --    1.72852   1.73002   1.73247   1.73327   1.73369
 Alpha virt. eigenvalues --    1.73520   1.73919   1.74007   1.74124   1.74401
 Alpha virt. eigenvalues --    1.74586   1.74771   1.74894   1.75227   1.75395
 Alpha virt. eigenvalues --    1.75946   1.76138   1.76342   1.76658   1.76847
 Alpha virt. eigenvalues --    1.77133   1.77222   1.77385   1.77866   1.78009
 Alpha virt. eigenvalues --    1.78827   1.79050   1.79282   1.79482   1.79815
 Alpha virt. eigenvalues --    1.80142   1.80389   1.80692   1.80781   1.81154
 Alpha virt. eigenvalues --    1.81340   1.81944   1.82258   1.82347   1.82624
 Alpha virt. eigenvalues --    1.83100   1.83170   1.83293   1.83371   1.83617
 Alpha virt. eigenvalues --    1.83893   1.84684   1.84932   1.85042   1.85681
 Alpha virt. eigenvalues --    1.86136   1.86205   1.86649   1.86803   1.87388
 Alpha virt. eigenvalues --    1.88067   1.88329   1.88386   1.88752   1.88845
 Alpha virt. eigenvalues --    1.89100   1.89507   1.89756   1.90255   1.90432
 Alpha virt. eigenvalues --    1.90880   1.91158   1.91635   1.91770   1.92662
 Alpha virt. eigenvalues --    1.92830   1.92941   1.93216   1.93529   1.94060
 Alpha virt. eigenvalues --    1.94114   1.94241   1.94619   1.95156   1.95424
 Alpha virt. eigenvalues --    1.95588   1.95866   1.96005   1.96205   1.96428
 Alpha virt. eigenvalues --    1.96797   1.97140   1.97302   1.97413   1.97770
 Alpha virt. eigenvalues --    1.98345   1.98686   1.99025   1.99229   1.99303
 Alpha virt. eigenvalues --    1.99737   1.99785   2.00235   2.00365   2.00692
 Alpha virt. eigenvalues --    2.00874   2.01361   2.01493   2.01796   2.02182
 Alpha virt. eigenvalues --    2.02368   2.02498   2.02775   2.02912   2.03327
 Alpha virt. eigenvalues --    2.03875   2.04023   2.04484   2.04670   2.05167
 Alpha virt. eigenvalues --    2.05501   2.05593   2.05875   2.06051   2.06234
 Alpha virt. eigenvalues --    2.06535   2.06780   2.06874   2.06981   2.07720
 Alpha virt. eigenvalues --    2.07828   2.08393   2.08581   2.08790   2.09442
 Alpha virt. eigenvalues --    2.09630   2.09955   2.10171   2.10312   2.10495
 Alpha virt. eigenvalues --    2.10648   2.11050   2.11264   2.11341   2.11592
 Alpha virt. eigenvalues --    2.12044   2.12306   2.12550   2.12756   2.13291
 Alpha virt. eigenvalues --    2.13515   2.13666   2.13963   2.14191   2.14288
 Alpha virt. eigenvalues --    2.14621   2.15022   2.15662   2.15791   2.15986
 Alpha virt. eigenvalues --    2.16281   2.16372   2.16867   2.17473   2.17632
 Alpha virt. eigenvalues --    2.18045   2.18217   2.18660   2.19024   2.19430
 Alpha virt. eigenvalues --    2.19714   2.19982   2.20258   2.20395   2.20558
 Alpha virt. eigenvalues --    2.21151   2.21567   2.21775   2.21883   2.22283
 Alpha virt. eigenvalues --    2.22701   2.22817   2.22888   2.23399   2.23687
 Alpha virt. eigenvalues --    2.23828   2.24655   2.24799   2.25394   2.25640
 Alpha virt. eigenvalues --    2.26153   2.26509   2.26917   2.27230   2.27839
 Alpha virt. eigenvalues --    2.28255   2.28369   2.28929   2.29044   2.29537
 Alpha virt. eigenvalues --    2.30320   2.30673   2.31029   2.31396   2.31709
 Alpha virt. eigenvalues --    2.31911   2.32141   2.32483   2.32771   2.33582
 Alpha virt. eigenvalues --    2.33909   2.34411   2.34719   2.35747   2.35893
 Alpha virt. eigenvalues --    2.36260   2.36609   2.36895   2.37559   2.37889
 Alpha virt. eigenvalues --    2.38742   2.38903   2.40066   2.40541   2.40946
 Alpha virt. eigenvalues --    2.41259   2.42112   2.42436   2.42860   2.43473
 Alpha virt. eigenvalues --    2.43855   2.44555   2.44856   2.45067   2.45350
 Alpha virt. eigenvalues --    2.45387   2.46061   2.46340   2.46709   2.47039
 Alpha virt. eigenvalues --    2.47348   2.47432   2.47609   2.48011   2.48246
 Alpha virt. eigenvalues --    2.48830   2.49250   2.50007   2.50454   2.50578
 Alpha virt. eigenvalues --    2.50842   2.51512   2.52591   2.54607   2.54840
 Alpha virt. eigenvalues --    2.55235   2.55893   2.56149   2.56284   2.57194
 Alpha virt. eigenvalues --    2.58368   2.58568   2.58786   2.59599   2.60023
 Alpha virt. eigenvalues --    2.60448   2.61843   2.62298   2.63820   2.64014
 Alpha virt. eigenvalues --    2.64132   2.64819   2.64959   2.65533   2.66633
 Alpha virt. eigenvalues --    2.67931   2.68015   2.68145   2.68558   2.69365
 Alpha virt. eigenvalues --    2.69946   2.70069   2.70236   2.70373   2.70684
 Alpha virt. eigenvalues --    2.71619   2.72061   2.72208   2.72733   2.73068
 Alpha virt. eigenvalues --    2.75326   2.75772   2.76394   2.77822   2.78339
 Alpha virt. eigenvalues --    2.78817   2.79625   2.79762   2.81217   2.81913
 Alpha virt. eigenvalues --    2.82506   2.83772   2.84379   2.84617   2.85561
 Alpha virt. eigenvalues --    2.85636   2.86688   2.88033   2.88414   2.88801
 Alpha virt. eigenvalues --    2.90600   2.91750   2.93883   2.94666   2.95296
 Alpha virt. eigenvalues --    2.97404   2.97974   2.98711   3.00207   3.01074
 Alpha virt. eigenvalues --    3.01972   3.02759   3.02785   3.03500   3.04852
 Alpha virt. eigenvalues --    3.05234   3.05328   3.07578   3.08410   3.12289
 Alpha virt. eigenvalues --    3.12792   3.13412   3.14750   3.15835   3.16347
 Alpha virt. eigenvalues --    3.16887   3.17306   3.17953   3.18844   3.19883
 Alpha virt. eigenvalues --    3.21490   3.24640   3.27087   3.30199   3.32022
 Alpha virt. eigenvalues --    3.34675   3.36899   3.38844   3.40795   3.42290
 Alpha virt. eigenvalues --    3.43755   3.43893   3.44187   3.46924   3.47360
 Alpha virt. eigenvalues --    3.47868   3.48909   3.49351   3.49382   3.49650
 Alpha virt. eigenvalues --    3.49963   3.50596   3.52517   3.53298   3.53673
 Alpha virt. eigenvalues --    3.55434   3.56723   3.57602   3.57856   3.59679
 Alpha virt. eigenvalues --    3.59763   3.60056   3.60458   3.62352   3.63822
 Alpha virt. eigenvalues --    3.65101   3.66561   3.67092   3.68792   3.69272
 Alpha virt. eigenvalues --    3.71273   3.74289   3.75678   3.79406   3.80013
 Alpha virt. eigenvalues --    3.81069   3.82463   3.84322   3.84887   3.89202
 Alpha virt. eigenvalues --    3.91177   3.92347   3.93285   3.94660   3.94847
 Alpha virt. eigenvalues --    3.96806   4.01688   4.03793   4.06873   4.12139
 Alpha virt. eigenvalues --    4.28819   4.37358   4.54346   4.82042   4.87998
 Alpha virt. eigenvalues --    4.91466
          Condensed to atoms (all electrons):
 Mulliken charges:
               1
     1  C   -0.983457
     2  C   -0.124170
     3  C   -0.363259
     4  C   -0.347292
     5  S   -0.208353
     6  C   -0.230682
     7  C    1.570638
     8  C    0.501246
     9  C    0.219643
    10  C    0.945991
    11  N   -0.026761
    12  C    0.540748
    13  C    1.191841
    14  H   -1.087260
    15  C    0.874348
    16  C    0.755490
    17  C    0.122460
    18  C    1.387553
    19  H   -1.115464
    20  H   -0.814470
    21  O   -0.709773
    22  C    1.005663
    23  H   -0.118643
    24  H   -0.118445
    25  H   -0.423828
    26  H   -1.089672
    27  C    0.404534
    28  C    1.789605
    29  C    1.196930
    30  C    0.498487
    31  C    0.164540
    32  C    0.456688
    33  H   -1.028668
    34  H   -0.800577
    35  O   -0.715714
    36  C    1.003213
    37  H   -0.120233
    38  H   -0.120707
    39  H   -0.421403
    40  H   -1.093506
    41  H   -1.148940
    42  C    0.176467
    43  C    0.453091
    44  H   -0.885294
    45  H   -1.088500
    46  H   -1.093985
    47  H   -0.934936
    48  C    1.215831
    49  C   -0.110573
    50  H   -1.020079
    51  S    0.051478
    52  C   -0.371881
    53  C    1.347924
    54  H   -1.013075
    55  C    0.391164
    56  S    0.087904
    57  C   -0.244342
    58  C   -0.072034
    59  C    0.198515
    60  C    1.382431
    61  C   -0.024304
    62  S   -0.053167
    63  C    0.163260
    64  O   -0.581532
    65  O   -0.610726
    66  C    0.971742
    67  H   -0.124186
    68  H   -0.119209
    69  H   -0.335006
    70  H   -0.970757
    71  C    0.802917
    72  C    1.456207
    73  C   -0.751632
    74  N   -0.149981
    75  C    0.429674
    76  O   -0.484205
    77  H    0.169577
    78  O   -0.493889
    79  H   -0.889367
    80  C    1.685119
    81  H   -0.173486
    82  H   -0.251440
    83  H   -0.251164
    84  C    1.333297
    85  H   -0.157369
    86  H   -0.244002
    87  H   -0.234818
 Sum of Mulliken charges =  -0.00000
 Mulliken charges with hydrogens summed into heavy atoms:
               1
     1  C   -0.983457
     2  C   -0.124170
     3  C   -0.363259
     4  C   -0.347292
     5  S   -0.208353
     6  C   -0.230682
     7  C    1.570638
     8  C   -0.433689
     9  C   -0.874342
    10  C    0.945991
    11  N   -0.026761
    12  C    0.540748
    13  C    0.104581
    15  C   -0.215324
    16  C    0.755490
    17  C   -0.692010
    18  C    0.272088
    21  O   -0.709773
    22  C    0.344748
    27  C    0.404534
    28  C    0.640665
    29  C    0.103424
    30  C    0.498487
    31  C   -0.636036
    32  C   -0.571980
    35  O   -0.715714
    36  C    0.340870
    42  C   -0.912033
    43  C   -0.432203
    48  C    0.195752
    49  C   -0.110573
    51  S    0.051478
    52  C   -0.371881
    53  C    0.334848
    55  C    0.391164
    56  S    0.087904
    57  C   -0.244342
    58  C   -0.072034
    59  C    0.198515
    60  C    0.411675
    61  C   -0.024304
    62  S   -0.053167
    63  C    0.163260
    64  O   -0.581532
    65  O   -0.610726
    66  C    0.393341
    71  C   -0.086450
    72  C    1.456207
    73  C   -0.751632
    74  N   -0.149981
    75  C    0.429674
    76  O   -0.314628
    78  O   -0.493889
    80  C    1.009028
    84  C    0.697108
 Electronic spatial extent (au):  <R**2>=         100527.4985
 Charge=             -0.0000 electrons
 Dipole moment (field-independent basis, Debye):
    X=             14.9041    Y=             -3.4093    Z=              5.7517  Tot=             16.3351
 Quadrupole moment (field-independent basis, Debye-Ang):
   XX=           -447.9303   YY=           -302.4198   ZZ=           -348.4372
   XY=              0.1092   XZ=            -26.8654   YZ=             -2.6360
 Traceless Quadrupole moment (field-independent basis, Debye-Ang):
   XX=            -81.6679   YY=             63.8426   ZZ=             17.8253
   XY=              0.1092   XZ=            -26.8654   YZ=             -2.6360
 Octapole moment (field-independent basis, Debye-Ang**2):
  XXX=           3009.5579  YYY=             93.9129  ZZZ=             27.4572  XYY=            141.0746
  XXY=            250.1329  XXZ=            794.4154  XZZ=             79.5124  YZZ=             -2.2558
  YYZ=             96.0349  XYZ=            -54.7545
 Hexadecapole moment (field-independent basis, Debye-Ang**3):
 XXXX=        -146073.7952 YYYY=         -13229.4598 ZZZZ=          -1756.1961 XXXY=          -1877.9185
 XXXZ=          -4451.5239 YYYX=           -804.3686 YYYZ=             86.2660 ZZZX=           -159.8365
 ZZZY=             12.6894 XXYY=         -18779.2031 XXZZ=         -20459.8430 YYZZ=          -2701.8585
 XXYZ=           -296.1305 YYXZ=            148.8837 ZZXY=           -232.8247
 N-N= 7.134566097159D+03 E-N=-2.321428317915D+04  KE= 3.794064235717D+03
 1\1\GINC-CN111\SP\RwB97XD TD-FC\Aug-CC-pVDZ\C43H32N2O6S4\R2532\22-Jun-
 2021\0\\#N TD(NStates=10) wB97XD/aug-cc-pVDZ\\Name\\0,1\C,0,0.937367,-
 3.073447,-0.186672\C,0,2.122867,-2.115248,-0.081661\C,0,1.679316,-0.80
 4099,0.068452\C,0,0.249325,-0.787165,0.077728\S,0,-1.03641,0.361025,0.
 215518\C,0,-2.23886,-0.926149,0.055578\C,0,-3.663445,-0.618716,0.08808
 1\C,0,-4.167072,0.639785,-0.284618\C,0,-5.523215,0.918205,-0.260048\C,
 0,-6.453643,-0.056471,0.14537\N,0,-7.828021,0.221147,0.178165\C,0,-8.3
 00703,1.55297,0.385806\C,0,-9.254197,2.109715,-0.465769\H,0,-9.625209,
 1.528423,-1.30142\C,0,-9.745666,3.397532,-0.252908\C,0,-9.267005,4.157
 431,0.817016\C,0,-8.304305,3.60531,1.672687\C,0,-7.836741,2.318757,1.4
 66163\H,0,-7.103023,1.89706,2.142771\H,0,-7.950783,4.202556,2.504337\O
 ,0,-9.668305,5.425275,1.114274\C,0,-10.642233,6.03995,0.282435\H,0,-10
 .285306,6.139026,-0.748855\H,0,-11.585682,5.482513,0.288556\H,0,-10.80
 8033,7.030888,0.701547\H,0,-10.488787,3.794368,-0.93121\C,0,-8.790537,
 -0.816003,-0.01459\C,0,-8.706892,-1.681719,-1.105345\C,0,-9.647255,-2.
 694117,-1.294967\C,0,-10.70787,-2.83637,-0.396541\C,0,-10.805065,-1.96
 0304,0.692355\C,0,-9.855745,-0.970857,0.884487\H,0,-9.935782,-0.303465
 ,1.734163\H,0,-11.631034,-2.085101,1.381938\O,0,-11.686719,-3.78038,-0
 .489179\C,0,-11.645727,-4.694126,-1.575939\H,0,-11.722954,-4.177359,-2
 .539191\H,0,-10.731032,-5.297522,-1.559834\H,0,-12.508032,-5.346312,-1
 .448547\H,0,-9.548391,-3.348753,-2.150306\H,0,-7.894861,-1.569078,-1.8
 13892\C,0,-5.957184,-1.318867,0.523743\C,0,-4.600126,-1.587169,0.49473
 7\H,0,-4.253834,-2.557328,0.831925\H,0,-6.64587,-2.082701,0.860973\H,0
 ,-5.873589,1.893646,-0.571326\H,0,-3.486389,1.408137,-0.634689\C,0,-1.
 625489,-2.161053,-0.07841\C,0,-0.219718,-2.083396,-0.064821\H,0,-2.191
 968,-3.072577,-0.2147\S,0,2.977646,0.322058,0.184968\C,0,4.162184,-0.9
 88087,0.012416\C,0,3.51621,-2.21773,-0.113955\H,0,4.06458,-3.142153,-0
 .244654\C,0,5.567054,-0.737299,0.045138\S,0,6.680862,-2.036515,0.37655
 5\C,0,8.117241,-1.007346,0.249715\C,0,7.699721,0.298072,-0.013178\C,0,
 6.283611,0.455188,-0.144695\C,0,5.918293,1.776862,-0.543528\C,0,7.0020
 29,2.580666,-0.716207\S,0,8.542754,1.781825,-0.380001\C,0,6.929485,3.9
 95445,-1.127359\O,0,5.9002,4.586493,-1.352715\O,0,8.156994,4.542399,-1
 .221469\C,0,8.202058,5.929065,-1.604344\H,0,7.756993,6.064628,-2.59108
 \H,0,7.661788,6.539691,-0.879736\H,0,9.25704,6.190991,-1.617581\H,0,4.
 914608,2.135918,-0.716605\C,0,9.37614,-1.65344,0.354095\C,0,10.622163,
 -1.158916,0.653764\C,0,10.831709,0.144243,1.17759\N,0,10.995247,1.1939
 76,1.635252\C,0,11.834467,-2.036742,0.645164\O,0,11.763023,-3.147544,-
 0.146859\H,0,11.061204,-3.044195,-0.799445\O,0,12.816952,-1.818928,1.2
 96115\H,0,9.33135,-2.730405,0.206037\C,0,0.917271,-3.80042,-1.548251\H
 ,0,0.924169,-3.086302,-2.374015\H,0,1.789433,-4.452223,-1.648799\H,0,0
 .021019,-4.420217,-1.637464\C,0,0.930182,-4.093261,0.972236\H,0,0.9472
 17,-3.587426,1.939546\H,0,0.0336,-4.717316,0.926403\H,0,1.80217,-4.750
 158,0.911574\\Version=ES64L-G16RevB.01\State=1-A\HF=-3810.9388289\RMSD
 =9.369e-09\PG=C01 [X(C43H32N2O6S4)]\\@


 ALL OUR THINKING ABOUT NATURE MUST NECESSARILY MOVE IN CIRCLES OR SPIRALS;
 FOR WE CAN ONLY UNDERSTAND NATURE IF WE THINK ABOUT HER, AND WE CAN ONLY
 THINK BECAUSE OUR BRAIN IS BUILT IN ACCORDANCE WITH NATURE'S LAWS.

                                             -- TIMOTHY FERRIS, "GALAXIES"
 Job cpu time:       5 days 23 hours 35 minutes 50.6 seconds.
 Elapsed time:       5 days 23 hours 36 minutes 33.2 seconds.
 File lengths (MBytes):  RWF=  12163 Int=      0 D2E=      0 Chk=    865 Scr=      1
 Normal termination of Gaussian 16 at Tue Jun 22 12:19:52 2021.
