 Entering Gaussian System, Link 0=/usr/local/apps//g09/g09
 Input=mexc.com
 Output=mexc.out
 Initial command:
 /usr/local/apps//g09/l1.exe "/tmp/bnp.469580.sequoia/Gau-8076.inp" -scrdir="/tmp/bnp.469580.sequoia/"
 Entering Link 1 = /usr/local/apps//g09/l1.exe PID=      8077.
  
 Copyright (c) 1988,1990,1992,1993,1995,1998,2003,2009,2013,
            Gaussian, Inc.  All Rights Reserved.
  
 This is part of the Gaussian(R) 09 program.  It is based on
 the Gaussian(R) 03 system (copyright 2003, Gaussian, Inc.),
 the Gaussian(R) 98 system (copyright 1998, Gaussian, Inc.),
 the Gaussian(R) 94 system (copyright 1995, Gaussian, Inc.),
 the Gaussian 92(TM) system (copyright 1992, Gaussian, Inc.),
 the Gaussian 90(TM) system (copyright 1990, Gaussian, Inc.),
 the Gaussian 88(TM) system (copyright 1988, Gaussian, Inc.),
 the Gaussian 86(TM) system (copyright 1986, Carnegie Mellon
 University), and the Gaussian 82(TM) system (copyright 1983,
 Carnegie Mellon University). Gaussian is a federally registered
 trademark of Gaussian, Inc.
  
 This software contains proprietary and confidential information,
 including trade secrets, belonging to Gaussian, Inc.
  
 This software is provided under written license and may be
 used, copied, transmitted, or stored only in accord with that
 written license.
  
 The following legend is applicable only to US Government
 contracts under FAR:
  
                    RESTRICTED RIGHTS LEGEND
  
 Use, reproduction and disclosure by the US Government is
 subject to restrictions as set forth in subparagraphs (a)
 and (c) of the Commercial Computer Software - Restricted
 Rights clause in FAR 52.227-19.
  
 Gaussian, Inc.
 340 Quinnipiac St., Bldg. 40, Wallingford CT 06492
  
  
 ---------------------------------------------------------------
 Warning -- This program may not be used in any manner that
 competes with the business of Gaussian, Inc. or will provide
 assistance to any competitor of Gaussian, Inc.  The licensee
 of this program is prohibited from giving any competitor of
 Gaussian, Inc. access to this program.  By using this program,
 the user acknowledges that Gaussian, Inc. is engaged in the
 business of creating and licensing software in the field of
 computational chemistry and represents and warrants to the
 licensee that it is not a competitor of Gaussian, Inc. and that
 it will not use this program in any manner prohibited above.
 ---------------------------------------------------------------
  

 Cite this work as:
 Gaussian 09, Revision D.01,
 M. J. Frisch, G. W. Trucks, H. B. Schlegel, G. E. Scuseria, 
 M. A. Robb, J. R. Cheeseman, G. Scalmani, V. Barone, B. Mennucci, 
 G. A. Petersson, H. Nakatsuji, M. Caricato, X. Li, H. P. Hratchian, 
 A. F. Izmaylov, J. Bloino, G. Zheng, J. L. Sonnenberg, M. Hada, 
 M. Ehara, K. Toyota, R. Fukuda, J. Hasegawa, M. Ishida, T. Nakajima, 
 Y. Honda, O. Kitao, H. Nakai, T. Vreven, J. A. Montgomery, Jr., 
 J. E. Peralta, F. Ogliaro, M. Bearpark, J. J. Heyd, E. Brothers, 
 K. N. Kudin, V. N. Staroverov, T. Keith, R. Kobayashi, J. Normand, 
 K. Raghavachari, A. Rendell, J. C. Burant, S. S. Iyengar, J. Tomasi, 
 M. Cossi, N. Rega, J. M. Millam, M. Klene, J. E. Knox, J. B. Cross, 
 V. Bakken, C. Adamo, J. Jaramillo, R. Gomperts, R. E. Stratmann, 
 O. Yazyev, A. J. Austin, R. Cammi, C. Pomelli, J. W. Ochterski, 
 R. L. Martin, K. Morokuma, V. G. Zakrzewski, G. A. Voth, 
 P. Salvador, J. J. Dannenberg, S. Dapprich, A. D. Daniels, 
 O. Farkas, J. B. Foresman, J. V. Ortiz, J. Cioslowski, 
 and D. J. Fox, Gaussian, Inc., Wallingford CT, 2013.
 
 ******************************************
 Gaussian 09:  ES64L-G09RevD.01 24-Apr-2013
                 7-Jun-2021 
 ******************************************
 %mem=8gb
 ---------------------------------------
 #N CAM-B3LYP/6-311G(d,p) TD(NStates=10)
 ---------------------------------------
 1/38=1/1;
 2/12=2,17=6,18=5,40=1/2;
 3/5=4,6=6,7=101,11=9,16=1,25=1,30=1,74=-40/1,2,8,3;
 4//1;
 5/5=2,38=5/2;
 8/6=1,10=2,108=10/1;
 9/41=10,42=1,70=2/14;
 6/7=2,8=2,9=2,10=2/1;
 99/5=1,9=1/99;
 ----
 Name
 ----
 Symbolic Z-matrix:
 Charge =  0 Multiplicity = 1
 C1                    1.58387  -0.55669  -0.16471 
 C2                    2.61657  -1.50134  -0.01182 
 C3                    3.94299  -1.10998   0.07613 
 C4                    1.95556   0.79934  -0.21684 
 C5                    3.27811   1.19578  -0.11278 
 C6                    4.30251   0.24617   0.0318 
 N7                    5.65374   0.64486   0.12987 
 C8                    6.55567  -0.06675   0.97149 
 C9                    7.83806  -0.39774   0.51534 
 C10                   8.72262  -1.08069   1.34403 
 C11                   8.34085  -1.45734   2.63042 
 C12                   7.06334  -1.13434   3.08479 
 C13                   6.17821  -0.43714   2.269 
 C14                   6.13122   1.76139  -0.61441 
 C15                   6.95642   2.71635  -0.00671 
 C16                   7.43314   3.79877  -0.73917 
 C17                   7.08455   3.95555  -2.07944 
 C18                   6.25847   3.01007  -2.68495 
 C19                   5.79083   1.91572  -1.96467 
 C20                   0.18548  -0.96234  -0.25654 
 C21                  -0.35657  -2.19213  -0.56493 
 O22                   0.39056  -3.3047   -0.84681 
 C23                  -0.35663  -4.32716  -1.518 
 C24                  -1.68253  -4.54896  -0.81782 
 O25                  -2.47781  -3.35345  -0.86615 
 C26                  -1.78056  -2.21838  -0.57188 
 C27                  -2.37284  -1.00462  -0.27364 
 S28                  -1.10966   0.17976   0.03917 
 C29                  -3.77552  -0.64738  -0.18092 
 C30                  -4.79979  -1.54477  -0.55533 
 C31                  -6.12815  -1.17921  -0.45526 
 C32                  -6.52303   0.09068   0.01635 
 C33                  -7.93606   0.36638   0.08 
 C34                  -8.63666   1.46472   0.47852 
 C35                  -8.06526   2.67364   0.95603 
 N36                  -7.68972   3.6947    1.35604 
 C37                  -10.14066   1.39541   0.40821 
 O38                  -10.8137   2.49614   0.8066 
 O39                  -10.73151   0.4227    0.02147 
 C40                  -5.49784   0.98828   0.38747 
 C41                  -4.17082   0.626     0.29075 
 H42                   2.37434  -2.55358   0.02801 
 H43                   4.71425  -1.8622    0.18404 
 H44                   1.19554   1.56258  -0.34115 
 H45                   3.52614   2.24897  -0.14773 
 H46                   8.13586  -0.11469  -0.48695 
 H47                   9.71178  -1.32947   0.97596 
 H48                   9.0305   -1.99406   3.27125 
 H49                   6.75613  -1.413     4.08668 
 H50                   5.1914   -0.17655   2.63192 
 H51                   7.22117   2.60379   1.03757 
 H52                   8.07027   4.52997  -0.25426 
 H53                   7.45247   4.80342  -2.64521 
 H54                   5.9862    3.11549  -3.72922 
 H55                   5.16049   1.1758   -2.44275 
 H56                   0.25986  -5.22555  -1.48597 
 H57                  -0.52078  -4.03793  -2.56239 
 H58                  -1.51877  -4.83348   0.22726 
 H59                  -2.26955  -5.32112  -1.31499 
 H60                  -4.54125  -2.52477  -0.92619 
 H61                  -6.89416  -1.88809  -0.75141 
 H62                  -8.58356  -0.44311  -0.24763 
 H63                  -10.20914   3.19665   1.08976 
 H64                  -5.73911   1.97527   0.75729 
 H65                  -3.41728   1.34337   0.59406 
 
 Stoichiometry    C34H24N2O4S
 Framework group  C1[X(C34H24N2O4S)]
 Deg. of freedom   189
 Full point group                 C1      NOp   1
 Largest Abelian subgroup         C1      NOp   1
 Largest concise Abelian subgroup C1      NOp   1
                         Standard orientation:                         
 ---------------------------------------------------------------------
 Center     Atomic      Atomic             Coordinates (Angstroms)
 Number     Number       Type             X           Y           Z
 ---------------------------------------------------------------------
      1          6           0       -1.583874    0.556693   -0.164710
      2          6           0       -2.616567    1.501336   -0.011816
      3          6           0       -3.942989    1.109980    0.076132
      4          6           0       -1.955555   -0.799337   -0.216835
      5          6           0       -3.278111   -1.195779   -0.112784
      6          6           0       -4.302513   -0.246165    0.031800
      7          7           0       -5.653743   -0.644860    0.129870
      8          6           0       -6.555670    0.066752    0.971486
      9          6           0       -7.838060    0.397737    0.515342
     10          6           0       -8.722623    1.080689    1.344026
     11          6           0       -8.340848    1.457342    2.630424
     12          6           0       -7.063338    1.134339    3.084793
     13          6           0       -6.178212    0.437140    2.268997
     14          6           0       -6.131217   -1.761390   -0.614412
     15          6           0       -6.956415   -2.716346   -0.006713
     16          6           0       -7.433142   -3.798766   -0.739167
     17          6           0       -7.084546   -3.955554   -2.079443
     18          6           0       -6.258475   -3.010070   -2.684947
     19          6           0       -5.790828   -1.915720   -1.964668
     20          6           0       -0.185482    0.962340   -0.256540
     21          6           0        0.356566    2.192127   -0.564926
     22          8           0       -0.390562    3.304695   -0.846805
     23          6           0        0.356626    4.327160   -1.518002
     24          6           0        1.682531    4.548965   -0.817823
     25          8           0        2.477808    3.353448   -0.866145
     26          6           0        1.780564    2.218376   -0.571879
     27          6           0        2.372844    1.004615   -0.273638
     28         16           0        1.109661   -0.179762    0.039166
     29          6           0        3.775522    0.647382   -0.180919
     30          6           0        4.799792    1.544768   -0.555334
     31          6           0        6.128149    1.179214   -0.455261
     32          6           0        6.523026   -0.090680    0.016352
     33          6           0        7.936061   -0.366375    0.079998
     34          6           0        8.636656   -1.464719    0.478523
     35          6           0        8.065263   -2.673643    0.956033
     36          7           0        7.689718   -3.694698    1.356037
     37          6           0       10.140658   -1.395407    0.408212
     38          8           0       10.813696   -2.496137    0.806598
     39          8           0       10.731511   -0.422698    0.021469
     40          6           0        5.497845   -0.988283    0.387471
     41          6           0        4.170822   -0.625996    0.290747
     42          1           0       -2.374338    2.553585    0.028009
     43          1           0       -4.714250    1.862200    0.184040
     44          1           0       -1.195538   -1.562581   -0.341151
     45          1           0       -3.526140   -2.248973   -0.147733
     46          1           0       -8.135862    0.114688   -0.486946
     47          1           0       -9.711776    1.329472    0.975962
     48          1           0       -9.030505    1.994060    3.271253
     49          1           0       -6.756134    1.413000    4.086683
     50          1           0       -5.191399    0.176549    2.631921
     51          1           0       -7.221172   -2.603789    1.037568
     52          1           0       -8.070273   -4.529970   -0.254258
     53          1           0       -7.452466   -4.803421   -2.645213
     54          1           0       -5.986196   -3.115491   -3.729222
     55          1           0       -5.160487   -1.175801   -2.442754
     56          1           0       -0.259860    5.225547   -1.485974
     57          1           0        0.520780    4.037932   -2.562391
     58          1           0        1.518767    4.833477    0.227260
     59          1           0        2.269554    5.321118   -1.314991
     60          1           0        4.541252    2.524766   -0.926188
     61          1           0        6.894159    1.888091   -0.751406
     62          1           0        8.583563    0.443108   -0.247632
     63          1           0       10.209140   -3.196646    1.089759
     64          1           0        5.739114   -1.975266    0.757291
     65          1           0        3.417278   -1.343373    0.594055
 ---------------------------------------------------------------------
 Rotational constants (GHZ):      0.1603720      0.0247312      0.0227806
 Standard basis: 6-311G(d,p) (5D, 7F)
 There are   931 symmetry adapted cartesian basis functions of A   symmetry.
 There are   890 symmetry adapted basis functions of A   symmetry.
   890 basis functions,  1518 primitive gaussians,   931 cartesian basis functions
   145 alpha electrons      145 beta electrons
       nuclear repulsion energy      4184.8263305700 Hartrees.
 NAtoms=   65 NActive=   65 NUniq=   65 SFac= 1.00D+00 NAtFMM=   60 NAOKFM=T Big=T
 Integral buffers will be    131072 words long.
 Raffenetti 1 integral format.
 Two-electron integral symmetry is turned on.
 One-electron integrals computed using PRISM.
 NBasis=   890 RedAO= T EigKep=  1.28D-04  NBF=   890
 NBsUse=   890 1.00D-06 EigRej= -1.00D+00 NBFU=   890
 ExpMin= 7.71D-02 ExpMax= 9.34D+04 ExpMxC= 3.17D+03 IAcc=2 IRadAn=         4 AccDes= 0.00D+00
 Harris functional with IExCor=20419 and IRadAn=       4 diagonalized for initial guess.
 HarFok:  IExCor=20419 AccDes= 0.00D+00 IRadAn=         4 IDoV= 1 UseB2=F ITyADJ=14
 ICtDFT=  3500011 ScaDFX=  1.000000  1.000000  1.000000  1.000000
 FoFCou: FMM=F IPFlag=           0 FMFlag=      100000 FMFlg1=        2001
         NFxFlg=           0 DoJE=T BraDBF=F KetDBF=T FulRan=T
         wScrn=  0.000000 ICntrl=     500 IOpCl=  0 I1Cent=   200000004 NGrid=           0
         NMat0=    1 NMatS0=      1 NMatT0=    0 NMatD0=    1 NMtDS0=    0 NMtDT0=    0
 Petite list used in FoFCou.
 Requested convergence on RMS density matrix=1.00D-08 within 128 cycles.
 Requested convergence on MAX density matrix=1.00D-06.
 Requested convergence on             energy=1.00D-06.
 No special actions if energy rises.
 Integral accuracy reduced to 1.0D-05 until final iterations.
 Initial convergence to 1.0D-05 achieved.  Increase integral accuracy.
 SCF Done:  E(RCAM-B3LYP) =  -2118.17172449     A.U. after   16 cycles
            NFock= 16  Conv=0.64D-08     -V/T= 2.0030
 DoSCS=F DFT=T ScalE2(SS,OS)=  1.000000  1.000000
 ExpMin= 7.71D-02 ExpMax= 9.34D+04 ExpMxC= 3.17D+03 IAcc=3 IRadAn=         5 AccDes= 0.00D+00
 HarFok:  IExCor=  205 AccDes= 0.00D+00 IRadAn=         5 IDoV=-2 UseB2=F ITyADJ=14
 ICtDFT= 12500011 ScaDFX=  1.000000  1.000000  1.000000  1.000000
 Range of M.O.s used for correlation:    46   890
 NBasis=   890 NAE=   145 NBE=   145 NFC=    45 NFV=     0
 NROrb=    845 NOA=   100 NOB=   100 NVA=   745 NVB=   745

 **** Warning!!: The largest alpha MO coefficient is  0.15328263D+02

 Would need an additional        470957100000 words for in-memory AO integral storage.
 Orbital symmetries:
       Occupied  (A) (A) (A) (A) (A) (A) (A) (A) (A) (A) (A) (A)
                 (A) (A) (A) (A) (A) (A) (A) (A) (A) (A) (A) (A)
                 (A) (A) (A) (A) (A) (A) (A) (A) (A) (A) (A) (A)
                 (A) (A) (A) (A) (A) (A) (A) (A) (A) (A) (A) (A)
                 (A) (A) (A) (A) (A) (A) (A) (A) (A) (A) (A) (A)
                 (A) (A) (A) (A) (A) (A) (A) (A) (A) (A) (A) (A)
                 (A) (A) (A) (A) (A) (A) (A) (A) (A) (A) (A) (A)
                 (A) (A) (A) (A) (A) (A) (A) (A) (A) (A) (A) (A)
                 (A) (A) (A) (A) (A) (A) (A) (A) (A) (A) (A) (A)
                 (A) (A) (A) (A) (A) (A) (A) (A) (A) (A) (A) (A)
                 (A) (A) (A) (A) (A) (A) (A) (A) (A) (A) (A) (A)
                 (A) (A) (A) (A) (A) (A) (A) (A) (A) (A) (A) (A)
                 (A)
       Virtual   (A) (A) (A) (A) (A) (A) (A) (A) (A) (A) (A) (A)
                 (A) (A) (A) (A) (A) (A) (A) (A) (A) (A) (A) (A)
                 (A) (A) (A) (A) (A) (A) (A) (A) (A) (A) (A) (A)
                 (A) (A) (A) (A) (A) (A) (A) (A) (A) (A) (A) (A)
                 (A) (A) (A) (A) (A) (A) (A) (A) (A) (A) (A) (A)
                 (A) (A) (A) (A) (A) (A) (A) (A) (A) (A) (A) (A)
                 (A) (A) (A) (A) (A) (A) (A) (A) (A) (A) (A) (A)
                 (A) (A) (A) (A) (A) (A) (A) (A) (A) (A) (A) (A)
                 (A) (A) (A) (A) (A) (A) (A) (A) (A) (A) (A) (A)
                 (A) (A) (A) (A) (A) (A) (A) (A) (A) (A) (A) (A)
                 (A) (A) (A) (A) (A) (A) (A) (A) (A) (A) (A) (A)
                 (A) (A) (A) (A) (A) (A) (A) (A) (A) (A) (A) (A)
                 (A) (A) (A) (A) (A) (A) (A) (A) (A) (A) (A) (A)
                 (A) (A) (A) (A) (A) (A) (A) (A) (A) (A) (A) (A)
                 (A) (A) (A) (A) (A) (A) (A) (A) (A) (A) (A) (A)
                 (A) (A) (A) (A) (A) (A) (A) (A) (A) (A) (A) (A)
                 (A) (A) (A) (A) (A) (A) (A) (A) (A) (A) (A) (A)
                 (A) (A) (A) (A) (A) (A) (A) (A) (A) (A) (A) (A)
                 (A) (A) (A) (A) (A) (A) (A) (A) (A) (A) (A) (A)
                 (A) (A) (A) (A) (A) (A) (A) (A) (A) (A) (A) (A)
                 (A) (A) (A) (A) (A) (A) (A) (A) (A) (A) (A) (A)
                 (A) (A) (A) (A) (A) (A) (A) (A) (A) (A) (A) (A)
                 (A) (A) (A) (A) (A) (A) (A) (A) (A) (A) (A) (A)
                 (A) (A) (A) (A) (A) (A) (A) (A) (A) (A) (A) (A)
                 (A) (A) (A) (A) (A) (A) (A) (A) (A) (A) (A) (A)
                 (A) (A) (A) (A) (A) (A) (A) (A) (A) (A) (A) (A)
                 (A) (A) (A) (A) (A) (A) (A) (A) (A) (A) (A) (A)
                 (A) (A) (A) (A) (A) (A) (A) (A) (A) (A) (A) (A)
                 (A) (A) (A) (A) (A) (A) (A) (A) (A) (A) (A) (A)
                 (A) (A) (A) (A) (A) (A) (A) (A) (A) (A) (A) (A)
                 (A) (A) (A) (A) (A) (A) (A) (A) (A) (A) (A) (A)
                 (A) (A) (A) (A) (A) (A) (A) (A) (A) (A) (A) (A)
                 (A) (A) (A) (A) (A) (A) (A) (A) (A) (A) (A) (A)
                 (A) (A) (A) (A) (A) (A) (A) (A) (A) (A) (A) (A)
                 (A) (A) (A) (A) (A) (A) (A) (A) (A) (A) (A) (A)
                 (A) (A) (A) (A) (A) (A) (A) (A) (A) (A) (A) (A)
                 (A) (A) (A) (A) (A) (A) (A) (A) (A) (A) (A) (A)
                 (A) (A) (A) (A) (A) (A) (A) (A) (A) (A) (A) (A)
                 (A) (A) (A) (A) (A) (A) (A) (A) (A) (A) (A) (A)
                 (A) (A) (A) (A) (A) (A) (A) (A) (A) (A) (A) (A)
                 (A) (A) (A) (A) (A) (A) (A) (A) (A) (A) (A) (A)
                 (A) (A) (A) (A) (A) (A) (A) (A) (A) (A) (A) (A)
                 (A) (A) (A) (A) (A) (A) (A) (A) (A) (A) (A) (A)
                 (A) (A) (A) (A) (A) (A) (A) (A) (A) (A) (A) (A)
                 (A) (A) (A) (A) (A) (A) (A) (A) (A) (A) (A) (A)
                 (A) (A) (A) (A) (A) (A) (A) (A) (A) (A) (A) (A)
                 (A) (A) (A) (A) (A) (A) (A) (A) (A) (A) (A) (A)
                 (A) (A) (A) (A) (A) (A) (A) (A) (A) (A) (A) (A)
                 (A) (A) (A) (A) (A) (A) (A) (A) (A) (A) (A) (A)
                 (A) (A) (A) (A) (A) (A) (A) (A) (A) (A) (A) (A)
                 (A) (A) (A) (A) (A) (A) (A) (A) (A) (A) (A) (A)
                 (A) (A) (A) (A) (A) (A) (A) (A) (A) (A) (A) (A)
                 (A) (A) (A) (A) (A) (A) (A) (A) (A) (A) (A) (A)
                 (A) (A) (A) (A) (A) (A) (A) (A) (A) (A) (A) (A)
                 (A) (A) (A) (A) (A) (A) (A) (A) (A) (A) (A) (A)
                 (A) (A) (A) (A) (A) (A) (A) (A) (A) (A) (A) (A)
                 (A) (A) (A) (A) (A) (A) (A) (A) (A) (A) (A) (A)
                 (A) (A) (A) (A) (A) (A) (A) (A) (A) (A) (A) (A)
                 (A) (A) (A) (A) (A) (A) (A) (A) (A) (A) (A) (A)
                 (A) (A) (A) (A) (A) (A) (A) (A) (A) (A) (A) (A)
                 (A) (A) (A) (A) (A) (A) (A) (A) (A) (A) (A) (A)
                 (A) (A) (A) (A) (A) (A) (A) (A) (A) (A) (A) (A)
                 (A)
    40 initial guesses have been made.
 Convergence on wavefunction:    0.001000000000000
 Iteration     1 Dimension    40 NMult     0 NNew     40
 CISAX will form    40 AO SS matrices at one time.
 New state      5 was old state      7
 New state      6 was old state     15
 New state      7 was old state     10
 New state      8 was old state     16
 New state      9 was old state      5
 New state     10 was old state     21
 Iteration     2 Dimension    60 NMult    40 NNew     20
 New state      8 was old state     10
 New state      9 was old state      8
 New state     10 was old state      9
 Iteration     3 Dimension    80 NMult    60 NNew     20
 Iteration     4 Dimension   100 NMult    80 NNew     20
 New state      8 was old state      9
 New state      9 was old state      8
 Iteration     5 Dimension   120 NMult   100 NNew     20
 Iteration     6 Dimension   140 NMult   120 NNew     20
 Iteration     7 Dimension   150 NMult   140 NNew     10
 Iteration     8 Dimension   152 NMult   150 NNew      2
 Iteration     9 Dimension   154 NMult   152 NNew      2
 Iteration    10 Dimension   156 NMult   154 NNew      2
 ***********************************************************************
 Excited states from <AA,BB:AA,BB> singles matrix:
 ***********************************************************************
 
 Ground to excited state transition densities written to RWF  633
 Ground to excited state transition electric dipole moments (Au):
       state          X           Y           Z        Dip. S.      Osc.
         1        -4.5944      0.5081     -0.1787     21.3982      1.5324
         2        -0.1547      1.5201     -0.4449      2.5326      0.2403
         3         1.0605     -0.0597     -0.0005      1.1282      0.1135
         4        -0.9194     -0.6275      0.1596      1.2645      0.1299
         5        -0.2488      0.0455     -0.3614      0.1945      0.0202
         6         0.2491     -0.3238      0.1012      0.1772      0.0193
         7        -0.2762      1.1062      0.8697      2.0563      0.2260
         8         0.8441     -0.3120      0.0441      0.8118      0.0928
         9         0.0008      0.0069      0.0276      0.0008      0.0001
        10         0.0488      0.0712      0.4335      0.1954      0.0228
 Ground to excited state transition velocity dipole moments (Au):
       state          X           Y           Z        Dip. S.      Osc.
         1         0.4843     -0.0532      0.0201      0.2378      1.4758
         2         0.0210     -0.2152      0.0628      0.0507      0.2374
         3        -0.1633      0.0078     -0.0007      0.0267      0.1180
         4         0.1417      0.0952     -0.0231      0.0297      0.1284
         5         0.0412     -0.0173      0.0654      0.0063      0.0268
         6        -0.0418      0.0526     -0.0155      0.0047      0.0194
         7         0.0465     -0.1858     -0.1433      0.0572      0.2313
         8        -0.1465      0.0514     -0.0031      0.0241      0.0938
         9        -0.0002     -0.0013     -0.0051      0.0000      0.0001
        10        -0.0113     -0.0101     -0.0812      0.0068      0.0260
 Ground to excited state transition magnetic dipole moments (Au):
       state          X           Y           Z
         1         0.0775     -0.6202     -2.1488
         2        -0.1508     -0.3822     -1.2291
         3        -0.0688      0.1526      0.5657
         4         0.0460     -0.1676     -0.4867
         5        -0.3577      1.5661     -0.5522
         6        -0.0440      0.1181      0.2351
         7         0.2185     -1.5647      1.7763
         8        -0.1193      0.6621      0.8758
         9        -0.1185     -0.1675      0.0696
        10         0.2846     -1.2825      0.7492
 Ground to excited state transition velocity quadrupole moments (Au):
       state          XX          YY          ZZ          XY          XZ          YZ
         1         3.0962     -0.0571     -0.1488     -1.2958      0.4319     -0.2609
         2         7.6884      0.0073      0.2800     -1.1752      0.3073      0.2599
         3         1.5722      0.4699      0.1761      0.3016     -0.1036      0.1159
         4        -0.8332      0.5307     -0.0871     -0.0201      0.0777     -0.2817
         5        -0.5991     -0.0115      0.0086      0.1078     -0.8366     -0.1704
         6         0.4707      0.1059      0.0852      0.7725     -0.3212      0.0726
         7        -1.3085      0.9413     -0.1462      2.6794      2.0823      0.2195
         8        -2.0758     -0.3634      0.2755      1.8651     -0.8187      0.3853
         9        -0.0131      0.0249     -0.0217     -0.0334     -0.0991      0.0262
        10        -0.6506     -0.0317     -0.0384      0.6318      0.7733      0.1532
 <0|del|b> * <b|rxdel|0> + <0|del|b> * <b|delr+rdel|0>
 Rotatory Strengths (R) in cgs (10**-40 erg-esu-cm/Gauss)
       state          XX          YY          ZZ    R(velocity)    E-M Angle
         1       -43.6638   -348.8661    572.5248     59.9983       88.56
         2        -6.2521     -2.7205     18.5854      3.2042       89.62
         3         3.2938    -18.4465     71.5310     18.7928       82.83
         4       -26.7232    -51.8832     86.8946      2.7627       88.84
         5      -159.8863   -147.1407    -46.0370   -117.6880      125.38
         6        16.2727     15.3689    -12.5641      6.3592       76.11
         7        83.6081    321.2809   -206.3302     66.1862       85.33
         8       139.3312    -74.0537    135.9172     67.0649       73.48
         9        -0.1940     -1.0526      0.7732     -0.1578       95.78
        10      -184.3284    -29.2641      7.4164    -68.7254      114.12
 1/2[<0|r|b>*<b|rxdel|0> + (<0|rxdel|b>*<b|r|0>)*]
 Rotatory Strengths (R) in cgs (10**-40 erg-esu-cm/Gauss)
       state          XX          YY          ZZ     R(length)
         1       251.8339    222.8359   -271.4943     67.7252
         2       -16.5013    410.8131   -386.6995      2.5374
         3        51.5792      6.4485      0.1930     19.4069
         4        29.8897    -74.3528     54.9186      3.4852
         5       -62.9243    -50.3773   -141.1246    -84.8087
         6         7.7472     27.0410    -16.8217      5.9888
         7        42.6829   1224.0008  -1092.4011     58.0942
         8        71.2033    146.0884    -27.3123     63.3265
         9         0.0673      0.8184     -1.3599     -0.1581
        10        -9.8266     64.5945   -229.6510    -58.2943
  1/2[<0|del|b>*<b|r|0> + (<0|r|b>*<b|del|0>)*] (Au)
       state          X           Y           Z        Dip. S.   Osc.(frdel)
         1        -2.2252     -0.0270     -0.0036      2.2558      1.5039
         2        -0.0033     -0.3271     -0.0279      0.3583      0.2388
         3        -0.1731     -0.0005      0.0000      0.1736      0.1157
         4        -0.1303     -0.0598     -0.0037      0.1937      0.1291
         5        -0.0103     -0.0008     -0.0236      0.0347      0.0231
         6        -0.0104     -0.0170     -0.0016      0.0290      0.0193
         7        -0.0128     -0.2055     -0.1246      0.3429      0.2286
         8        -0.1237     -0.0160     -0.0001      0.1398      0.0932
         9         0.0000      0.0000     -0.0001      0.0002      0.0001
        10        -0.0006     -0.0007     -0.0352      0.0365      0.0243

 Excitation energies and oscillator strengths:
 
 Excited State   1:      Singlet-A      2.9231 eV  424.15 nm  f=1.5324  <S**2>=0.000
     144 ->146         0.28955
     145 ->146         0.59742
     145 ->147         0.20220
 This state for optimization and/or second-order correction.
 Total Energy, E(TD-HF/TD-KS) =  -2118.06430234    
 Copying the excited state density for this state as the 1-particle RhoCI density.
 
 Excited State   2:      Singlet-A      3.8733 eV  320.10 nm  f=0.2403  <S**2>=0.000
     140 ->146        -0.11186
     142 ->146         0.14142
     143 ->146        -0.13224
     144 ->146         0.51845
     145 ->146        -0.14530
     145 ->147        -0.34968
     145 ->151        -0.11025
 
 Excited State   3:      Singlet-A      4.1070 eV  301.88 nm  f=0.1135  <S**2>=0.000
     143 ->146         0.43074
     143 ->147         0.14018
     144 ->146        -0.13808
     144 ->147        -0.12393
     145 ->146         0.21877
     145 ->147        -0.40369
     145 ->151        -0.12902
 
 Excited State   4:      Singlet-A      4.1924 eV  295.74 nm  f=0.1299  <S**2>=0.000
     142 ->146         0.10616
     143 ->146         0.46481
     143 ->147         0.16968
     144 ->146         0.22768
     144 ->147         0.12940
     145 ->146        -0.23505
     145 ->147         0.30942
 
 Excited State   5:      Singlet-A      4.2454 eV  292.04 nm  f=0.0202  <S**2>=0.000
     144 ->148        -0.19654
     145 ->148         0.62213
     145 ->152         0.12990
 
 Excited State   6:      Singlet-A      4.4518 eV  278.51 nm  f=0.0193  <S**2>=0.000
     137 ->146         0.57322
     144 ->150        -0.22313
     145 ->150        -0.24292
 
 Excited State   7:      Singlet-A      4.4856 eV  276.40 nm  f=0.2260  <S**2>=0.000
     144 ->149        -0.28203
     145 ->149         0.62541
 
 Excited State   8:      Singlet-A      4.6637 eV  265.85 nm  f=0.0928  <S**2>=0.000
     136 ->146         0.17260
     137 ->146        -0.17097
     140 ->146         0.28536
     142 ->146        -0.29470
     144 ->147         0.38404
     145 ->150        -0.10834
     145 ->151        -0.27007
 
 Excited State   9:      Singlet-A      4.6958 eV  264.03 nm  f=0.0001  <S**2>=0.000
     135 ->146         0.62330
     135 ->147        -0.22345
     135 ->151         0.11614
     135 ->158        -0.17963
 
 Excited State  10:      Singlet-A      4.7678 eV  260.05 nm  f=0.0228  <S**2>=0.000
     139 ->146         0.11472
     139 ->147         0.15076
     140 ->149         0.10246
     141 ->146         0.12188
     141 ->147         0.11810
     142 ->148        -0.11282
     144 ->148         0.20446
     144 ->152        -0.11204
     145 ->152         0.51400
 SavETr:  write IOETrn=   770 NScale= 10 NData=  16 NLR=1 NState=   10 LETran=     190.

 **********************************************************************

            Population analysis using the SCF density.

 **********************************************************************

 Orbital symmetries:
       Occupied  (A) (A) (A) (A) (A) (A) (A) (A) (A) (A) (A) (A)
                 (A) (A) (A) (A) (A) (A) (A) (A) (A) (A) (A) (A)
                 (A) (A) (A) (A) (A) (A) (A) (A) (A) (A) (A) (A)
                 (A) (A) (A) (A) (A) (A) (A) (A) (A) (A) (A) (A)
                 (A) (A) (A) (A) (A) (A) (A) (A) (A) (A) (A) (A)
                 (A) (A) (A) (A) (A) (A) (A) (A) (A) (A) (A) (A)
                 (A) (A) (A) (A) (A) (A) (A) (A) (A) (A) (A) (A)
                 (A) (A) (A) (A) (A) (A) (A) (A) (A) (A) (A) (A)
                 (A) (A) (A) (A) (A) (A) (A) (A) (A) (A) (A) (A)
                 (A) (A) (A) (A) (A) (A) (A) (A) (A) (A) (A) (A)
                 (A) (A) (A) (A) (A) (A) (A) (A) (A) (A) (A) (A)
                 (A) (A) (A) (A) (A) (A) (A) (A) (A) (A) (A) (A)
                 (A)
       Virtual   (A) (A) (A) (A) (A) (A) (A) (A) (A) (A) (A) (A)
                 (A) (A) (A) (A) (A) (A) (A) (A) (A) (A) (A) (A)
                 (A) (A) (A) (A) (A) (A) (A) (A) (A) (A) (A) (A)
                 (A) (A) (A) (A) (A) (A) (A) (A) (A) (A) (A) (A)
                 (A) (A) (A) (A) (A) (A) (A) (A) (A) (A) (A) (A)
                 (A) (A) (A) (A) (A) (A) (A) (A) (A) (A) (A) (A)
                 (A) (A) (A) (A) (A) (A) (A) (A) (A) (A) (A) (A)
                 (A) (A) (A) (A) (A) (A) (A) (A) (A) (A) (A) (A)
                 (A) (A) (A) (A) (A) (A) (A) (A) (A) (A) (A) (A)
                 (A) (A) (A) (A) (A) (A) (A) (A) (A) (A) (A) (A)
                 (A) (A) (A) (A) (A) (A) (A) (A) (A) (A) (A) (A)
                 (A) (A) (A) (A) (A) (A) (A) (A) (A) (A) (A) (A)
                 (A) (A) (A) (A) (A) (A) (A) (A) (A) (A) (A) (A)
                 (A) (A) (A) (A) (A) (A) (A) (A) (A) (A) (A) (A)
                 (A) (A) (A) (A) (A) (A) (A) (A) (A) (A) (A) (A)
                 (A) (A) (A) (A) (A) (A) (A) (A) (A) (A) (A) (A)
                 (A) (A) (A) (A) (A) (A) (A) (A) (A) (A) (A) (A)
                 (A) (A) (A) (A) (A) (A) (A) (A) (A) (A) (A) (A)
                 (A) (A) (A) (A) (A) (A) (A) (A) (A) (A) (A) (A)
                 (A) (A) (A) (A) (A) (A) (A) (A) (A) (A) (A) (A)
                 (A) (A) (A) (A) (A) (A) (A) (A) (A) (A) (A) (A)
                 (A) (A) (A) (A) (A) (A) (A) (A) (A) (A) (A) (A)
                 (A) (A) (A) (A) (A) (A) (A) (A) (A) (A) (A) (A)
                 (A) (A) (A) (A) (A) (A) (A) (A) (A) (A) (A) (A)
                 (A) (A) (A) (A) (A) (A) (A) (A) (A) (A) (A) (A)
                 (A) (A) (A) (A) (A) (A) (A) (A) (A) (A) (A) (A)
                 (A) (A) (A) (A) (A) (A) (A) (A) (A) (A) (A) (A)
                 (A) (A) (A) (A) (A) (A) (A) (A) (A) (A) (A) (A)
                 (A) (A) (A) (A) (A) (A) (A) (A) (A) (A) (A) (A)
                 (A) (A) (A) (A) (A) (A) (A) (A) (A) (A) (A) (A)
                 (A) (A) (A) (A) (A) (A) (A) (A) (A) (A) (A) (A)
                 (A) (A) (A) (A) (A) (A) (A) (A) (A) (A) (A) (A)
                 (A) (A) (A) (A) (A) (A) (A) (A) (A) (A) (A) (A)
                 (A) (A) (A) (A) (A) (A) (A) (A) (A) (A) (A) (A)
                 (A) (A) (A) (A) (A) (A) (A) (A) (A) (A) (A) (A)
                 (A) (A) (A) (A) (A) (A) (A) (A) (A) (A) (A) (A)
                 (A) (A) (A) (A) (A) (A) (A) (A) (A) (A) (A) (A)
                 (A) (A) (A) (A) (A) (A) (A) (A) (A) (A) (A) (A)
                 (A) (A) (A) (A) (A) (A) (A) (A) (A) (A) (A) (A)
                 (A) (A) (A) (A) (A) (A) (A) (A) (A) (A) (A) (A)
                 (A) (A) (A) (A) (A) (A) (A) (A) (A) (A) (A) (A)
                 (A) (A) (A) (A) (A) (A) (A) (A) (A) (A) (A) (A)
                 (A) (A) (A) (A) (A) (A) (A) (A) (A) (A) (A) (A)
                 (A) (A) (A) (A) (A) (A) (A) (A) (A) (A) (A) (A)
                 (A) (A) (A) (A) (A) (A) (A) (A) (A) (A) (A) (A)
                 (A) (A) (A) (A) (A) (A) (A) (A) (A) (A) (A) (A)
                 (A) (A) (A) (A) (A) (A) (A) (A) (A) (A) (A) (A)
                 (A) (A) (A) (A) (A) (A) (A) (A) (A) (A) (A) (A)
                 (A) (A) (A) (A) (A) (A) (A) (A) (A) (A) (A) (A)
                 (A) (A) (A) (A) (A) (A) (A) (A) (A) (A) (A) (A)
                 (A) (A) (A) (A) (A) (A) (A) (A) (A) (A) (A) (A)
                 (A) (A) (A) (A) (A) (A) (A) (A) (A) (A) (A) (A)
                 (A) (A) (A) (A) (A) (A) (A) (A) (A) (A) (A) (A)
                 (A) (A) (A) (A) (A) (A) (A) (A) (A) (A) (A) (A)
                 (A) (A) (A) (A) (A) (A) (A) (A) (A) (A) (A) (A)
                 (A) (A) (A) (A) (A) (A) (A) (A) (A) (A) (A) (A)
                 (A) (A) (A) (A) (A) (A) (A) (A) (A) (A) (A) (A)
                 (A) (A) (A) (A) (A) (A) (A) (A) (A) (A) (A) (A)
                 (A) (A) (A) (A) (A) (A) (A) (A) (A) (A) (A) (A)
                 (A) (A) (A) (A) (A) (A) (A) (A) (A) (A) (A) (A)
                 (A) (A) (A) (A) (A) (A) (A) (A) (A) (A) (A) (A)
                 (A) (A) (A) (A) (A) (A) (A) (A) (A) (A) (A) (A)
                 (A)
 The electronic state is 1-A.
 Alpha  occ. eigenvalues --  -88.95584 -19.25252 -19.24664 -19.23962 -19.17841
 Alpha  occ. eigenvalues --  -14.42046 -14.40337 -10.39110 -10.33308 -10.33263
 Alpha  occ. eigenvalues --  -10.33106 -10.32526 -10.30339 -10.30310 -10.30252
 Alpha  occ. eigenvalues --  -10.29959 -10.29769 -10.29641 -10.29622 -10.29436
 Alpha  occ. eigenvalues --  -10.29317 -10.27910 -10.27191 -10.27104 -10.27031
 Alpha  occ. eigenvalues --  -10.26590 -10.26119 -10.25852 -10.25459 -10.25445
 Alpha  occ. eigenvalues --  -10.25436 -10.25429 -10.25408 -10.25235 -10.25182
 Alpha  occ. eigenvalues --  -10.25177 -10.25160 -10.25141 -10.25102 -10.24998
 Alpha  occ. eigenvalues --  -10.24975  -8.04489  -6.00914  -6.00530  -6.00077
 Alpha  occ. eigenvalues --   -1.19669  -1.19217  -1.15922  -1.10846  -1.05868
 Alpha  occ. eigenvalues --   -1.01310  -0.99339  -0.97042  -0.95261  -0.95010
 Alpha  occ. eigenvalues --   -0.93242  -0.92433  -0.88485  -0.88278  -0.85747
 Alpha  occ. eigenvalues --   -0.85193  -0.84940  -0.83747  -0.83654  -0.83442
 Alpha  occ. eigenvalues --   -0.82287  -0.80705  -0.79462  -0.77512  -0.74519
 Alpha  occ. eigenvalues --   -0.72241  -0.71388  -0.71043  -0.70031  -0.69490
 Alpha  occ. eigenvalues --   -0.69136  -0.68603  -0.68353  -0.66786  -0.65649
 Alpha  occ. eigenvalues --   -0.65484  -0.64049  -0.63475  -0.61673  -0.61563
 Alpha  occ. eigenvalues --   -0.60763  -0.59748  -0.59187  -0.57371  -0.56117
 Alpha  occ. eigenvalues --   -0.55848  -0.55082  -0.54387  -0.53813  -0.53550
 Alpha  occ. eigenvalues --   -0.53401  -0.53144  -0.52912  -0.52616  -0.52290
 Alpha  occ. eigenvalues --   -0.51798  -0.51597  -0.51310  -0.50702  -0.50579
 Alpha  occ. eigenvalues --   -0.50070  -0.49850  -0.49674  -0.49601  -0.48653
 Alpha  occ. eigenvalues --   -0.47787  -0.47335  -0.47097  -0.45989  -0.45740
 Alpha  occ. eigenvalues --   -0.45327  -0.45124  -0.44918  -0.44832  -0.44489
 Alpha  occ. eigenvalues --   -0.44310  -0.43536  -0.43024  -0.42902  -0.42270
 Alpha  occ. eigenvalues --   -0.42168  -0.41643  -0.41468  -0.41249  -0.40781
 Alpha  occ. eigenvalues --   -0.39724  -0.39103  -0.38273  -0.37485  -0.35169
 Alpha  occ. eigenvalues --   -0.34189  -0.33255  -0.32612  -0.32567  -0.31694
 Alpha  occ. eigenvalues --   -0.31409  -0.31117  -0.29207  -0.26829  -0.23485
 Alpha virt. eigenvalues --   -0.06752  -0.01502   0.01395   0.01937   0.02173
 Alpha virt. eigenvalues --    0.03007   0.03870   0.03962   0.05700   0.05777
 Alpha virt. eigenvalues --    0.06143   0.06523   0.06971   0.07871   0.08386
 Alpha virt. eigenvalues --    0.08801   0.08905   0.09026   0.09557   0.10001
 Alpha virt. eigenvalues --    0.10648   0.11179   0.11491   0.11596   0.11875
 Alpha virt. eigenvalues --    0.12521   0.12684   0.13186   0.13811   0.14600
 Alpha virt. eigenvalues --    0.14759   0.15424   0.15576   0.15979   0.16218
 Alpha virt. eigenvalues --    0.17150   0.17748   0.17941   0.18389   0.19246
 Alpha virt. eigenvalues --    0.19286   0.19744   0.20186   0.20628   0.21477
 Alpha virt. eigenvalues --    0.21799   0.22596   0.22747   0.22794   0.23848
 Alpha virt. eigenvalues --    0.24001   0.25127   0.26896   0.28176   0.28447
 Alpha virt. eigenvalues --    0.28842   0.28993   0.29353   0.30647   0.31199
 Alpha virt. eigenvalues --    0.31367   0.31622   0.32067   0.32170   0.32588
 Alpha virt. eigenvalues --    0.33144   0.33622   0.33889   0.34288   0.34541
 Alpha virt. eigenvalues --    0.35225   0.35687   0.36245   0.36302   0.36418
 Alpha virt. eigenvalues --    0.36904   0.37485   0.37877   0.39018   0.39525
 Alpha virt. eigenvalues --    0.39698   0.39796   0.40399   0.40873   0.41100
 Alpha virt. eigenvalues --    0.41645   0.41878   0.42117   0.42173   0.42405
 Alpha virt. eigenvalues --    0.42954   0.43251   0.43476   0.43525   0.43827
 Alpha virt. eigenvalues --    0.43937   0.44497   0.44573   0.44896   0.45266
 Alpha virt. eigenvalues --    0.45698   0.45966   0.46229   0.46343   0.47079
 Alpha virt. eigenvalues --    0.47201   0.47394   0.47599   0.47820   0.47940
 Alpha virt. eigenvalues --    0.48202   0.48489   0.48586   0.48659   0.48835
 Alpha virt. eigenvalues --    0.48996   0.49067   0.49322   0.49524   0.49629
 Alpha virt. eigenvalues --    0.50249   0.50526   0.51228   0.52242   0.52413
 Alpha virt. eigenvalues --    0.52671   0.53004   0.53231   0.53557   0.54013
 Alpha virt. eigenvalues --    0.54704   0.54994   0.55445   0.55883   0.56057
 Alpha virt. eigenvalues --    0.56340   0.56625   0.57167   0.57565   0.58067
 Alpha virt. eigenvalues --    0.58425   0.58983   0.60089   0.60633   0.60678
 Alpha virt. eigenvalues --    0.60841   0.61338   0.61511   0.61574   0.61653
 Alpha virt. eigenvalues --    0.61844   0.62411   0.62619   0.62806   0.63393
 Alpha virt. eigenvalues --    0.63420   0.64242   0.64800   0.65131   0.65524
 Alpha virt. eigenvalues --    0.65713   0.65868   0.66143   0.66325   0.66486
 Alpha virt. eigenvalues --    0.66647   0.67138   0.67259   0.67350   0.67960
 Alpha virt. eigenvalues --    0.68268   0.68436   0.68604   0.69021   0.69724
 Alpha virt. eigenvalues --    0.69770   0.69954   0.70884   0.71104   0.71305
 Alpha virt. eigenvalues --    0.71379   0.71733   0.72576   0.72734   0.72981
 Alpha virt. eigenvalues --    0.73376   0.73560   0.74219   0.75848   0.76267
 Alpha virt. eigenvalues --    0.77081   0.77325   0.78299   0.78379   0.78710
 Alpha virt. eigenvalues --    0.79086   0.79428   0.80247   0.81218   0.81384
 Alpha virt. eigenvalues --    0.81975   0.82860   0.83197   0.83837   0.84154
 Alpha virt. eigenvalues --    0.84537   0.84829   0.85589   0.85978   0.86286
 Alpha virt. eigenvalues --    0.87136   0.87253   0.87497   0.88101   0.88456
 Alpha virt. eigenvalues --    0.88614   0.88850   0.89402   0.89681   0.89767
 Alpha virt. eigenvalues --    0.90114   0.90461   0.90802   0.91444   0.92062
 Alpha virt. eigenvalues --    0.92401   0.92570   0.92893   0.94405   0.95399
 Alpha virt. eigenvalues --    0.95672   0.95932   0.96088   0.96953   0.97072
 Alpha virt. eigenvalues --    0.97202   0.98071   0.98266   0.98750   0.99596
 Alpha virt. eigenvalues --    1.00109   1.00585   1.01792   1.02146   1.03417
 Alpha virt. eigenvalues --    1.03459   1.03652   1.04128   1.04758   1.05410
 Alpha virt. eigenvalues --    1.05452   1.05883   1.06532   1.06692   1.07490
 Alpha virt. eigenvalues --    1.07664   1.08806   1.09124   1.09546   1.09829
 Alpha virt. eigenvalues --    1.10069   1.10238   1.10610   1.11823   1.12026
 Alpha virt. eigenvalues --    1.12944   1.13249   1.13526   1.13776   1.14088
 Alpha virt. eigenvalues --    1.14445   1.14944   1.15139   1.15621   1.16363
 Alpha virt. eigenvalues --    1.16815   1.17173   1.17650   1.18686   1.19035
 Alpha virt. eigenvalues --    1.19258   1.19332   1.19970   1.20430   1.20745
 Alpha virt. eigenvalues --    1.21245   1.22348   1.22451   1.23121   1.25515
 Alpha virt. eigenvalues --    1.26078   1.26989   1.27200   1.29680   1.30852
 Alpha virt. eigenvalues --    1.31886   1.32622   1.32700   1.34044   1.34634
 Alpha virt. eigenvalues --    1.35778   1.36808   1.37249   1.37723   1.38868
 Alpha virt. eigenvalues --    1.39547   1.41469   1.41539   1.42297   1.44855
 Alpha virt. eigenvalues --    1.45547   1.45997   1.46313   1.46456   1.46522
 Alpha virt. eigenvalues --    1.47218   1.49339   1.50196   1.50412   1.50985
 Alpha virt. eigenvalues --    1.51079   1.51911   1.51939   1.52482   1.52672
 Alpha virt. eigenvalues --    1.53040   1.53379   1.53481   1.53542   1.54476
 Alpha virt. eigenvalues --    1.54890   1.55323   1.55854   1.56846   1.57162
 Alpha virt. eigenvalues --    1.57273   1.57671   1.57975   1.58375   1.58873
 Alpha virt. eigenvalues --    1.59722   1.59968   1.60157   1.60749   1.61085
 Alpha virt. eigenvalues --    1.61620   1.61799   1.61960   1.62177   1.62692
 Alpha virt. eigenvalues --    1.63110   1.63504   1.64729   1.65079   1.65635
 Alpha virt. eigenvalues --    1.66096   1.67047   1.67260   1.67557   1.68834
 Alpha virt. eigenvalues --    1.68980   1.69114   1.69966   1.70639   1.70910
 Alpha virt. eigenvalues --    1.70922   1.71272   1.72193   1.72427   1.72783
 Alpha virt. eigenvalues --    1.73483   1.73566   1.74246   1.74491   1.74794
 Alpha virt. eigenvalues --    1.75379   1.76242   1.76732   1.77189   1.79068
 Alpha virt. eigenvalues --    1.80049   1.80349   1.80753   1.80912   1.81249
 Alpha virt. eigenvalues --    1.81340   1.81678   1.82594   1.83549   1.83865
 Alpha virt. eigenvalues --    1.84129   1.84388   1.84526   1.85212   1.85825
 Alpha virt. eigenvalues --    1.86249   1.86417   1.87251   1.87400   1.88337
 Alpha virt. eigenvalues --    1.88700   1.89069   1.89848   1.90798   1.92498
 Alpha virt. eigenvalues --    1.93542   1.93845   1.94727   1.95002   1.95754
 Alpha virt. eigenvalues --    1.96890   1.97219   1.97476   1.97668   1.98054
 Alpha virt. eigenvalues --    1.98255   1.98432   1.98514   1.98636   1.98876
 Alpha virt. eigenvalues --    1.99476   1.99795   1.99883   2.00570   2.00884
 Alpha virt. eigenvalues --    2.01319   2.01471   2.01961   2.02052   2.02166
 Alpha virt. eigenvalues --    2.02844   2.03382   2.04662   2.04995   2.05403
 Alpha virt. eigenvalues --    2.05946   2.06820   2.07363   2.07703   2.07983
 Alpha virt. eigenvalues --    2.08271   2.08680   2.09542   2.09809   2.10203
 Alpha virt. eigenvalues --    2.11302   2.12692   2.13442   2.13875   2.14393
 Alpha virt. eigenvalues --    2.14858   2.15045   2.15565   2.16169   2.17250
 Alpha virt. eigenvalues --    2.17545   2.18080   2.19150   2.20649   2.21581
 Alpha virt. eigenvalues --    2.21864   2.22689   2.23214   2.23319   2.24726
 Alpha virt. eigenvalues --    2.26469   2.27705   2.28114   2.31093   2.32033
 Alpha virt. eigenvalues --    2.34083   2.34609   2.35815   2.36061   2.36784
 Alpha virt. eigenvalues --    2.37669   2.37776   2.38587   2.38883   2.39675
 Alpha virt. eigenvalues --    2.40439   2.41562   2.41853   2.42595   2.42740
 Alpha virt. eigenvalues --    2.43486   2.43896   2.44119   2.45139   2.45344
 Alpha virt. eigenvalues --    2.45940   2.46880   2.46995   2.48720   2.50696
 Alpha virt. eigenvalues --    2.50847   2.52192   2.52866   2.54552   2.57043
 Alpha virt. eigenvalues --    2.58452   2.58741   2.59703   2.60504   2.60995
 Alpha virt. eigenvalues --    2.61654   2.61954   2.62523   2.63115   2.64778
 Alpha virt. eigenvalues --    2.65381   2.65841   2.66119   2.66651   2.66778
 Alpha virt. eigenvalues --    2.67498   2.68278   2.68790   2.68945   2.69277
 Alpha virt. eigenvalues --    2.69292   2.69598   2.69831   2.70193   2.70503
 Alpha virt. eigenvalues --    2.70766   2.71070   2.71522   2.72008   2.72390
 Alpha virt. eigenvalues --    2.72497   2.73335   2.73762   2.74064   2.74143
 Alpha virt. eigenvalues --    2.74627   2.74912   2.75352   2.76021   2.76324
 Alpha virt. eigenvalues --    2.76731   2.77142   2.77968   2.78793   2.79011
 Alpha virt. eigenvalues --    2.79691   2.79972   2.81241   2.81633   2.82711
 Alpha virt. eigenvalues --    2.83524   2.83837   2.85144   2.85463   2.86213
 Alpha virt. eigenvalues --    2.86380   2.86649   2.87877   2.89207   2.89806
 Alpha virt. eigenvalues --    2.90088   2.90390   2.90886   2.91827   2.92223
 Alpha virt. eigenvalues --    2.93586   2.93946   2.94338   2.95271   2.96175
 Alpha virt. eigenvalues --    2.96286   2.96820   2.97356   2.97989   2.98030
 Alpha virt. eigenvalues --    2.98347   2.98690   2.98795   2.99485   3.00133
 Alpha virt. eigenvalues --    3.01041   3.02964   3.03049   3.03459   3.04127
 Alpha virt. eigenvalues --    3.05035   3.05269   3.05904   3.09855   3.10864
 Alpha virt. eigenvalues --    3.12013   3.12213   3.14054   3.14783   3.16411
 Alpha virt. eigenvalues --    3.16923   3.17065   3.17560   3.18393   3.20679
 Alpha virt. eigenvalues --    3.21418   3.22679   3.23278   3.24518   3.25104
 Alpha virt. eigenvalues --    3.25299   3.26914   3.27682   3.28344   3.29211
 Alpha virt. eigenvalues --    3.32954   3.33718   3.36353   3.38301   3.38596
 Alpha virt. eigenvalues --    3.39443   3.39754   3.41246   3.42182   3.42815
 Alpha virt. eigenvalues --    3.42873   3.43221   3.44288   3.44777   3.45853
 Alpha virt. eigenvalues --    3.49455   3.49892   3.50297   3.50980   3.53426
 Alpha virt. eigenvalues --    3.54254   3.54259   3.55400   3.56015   3.56437
 Alpha virt. eigenvalues --    3.57199   3.57853   3.61487   3.63283   3.64908
 Alpha virt. eigenvalues --    3.65533   3.66081   3.68293   3.69190   3.70650
 Alpha virt. eigenvalues --    3.71182   3.83671   3.85186   3.89943   3.90746
 Alpha virt. eigenvalues --    3.91221   3.93330   3.93601   3.96362   3.98894
 Alpha virt. eigenvalues --    3.99999   4.01016   4.03605   4.04088   4.04197
 Alpha virt. eigenvalues --    4.05209   4.06237   4.06346   4.10807   4.13068
 Alpha virt. eigenvalues --    4.15301   4.17660   4.18429   4.18634   4.19220
 Alpha virt. eigenvalues --    4.19559   4.21209   4.22147   4.23365   4.24174
 Alpha virt. eigenvalues --    4.24813   4.26020   4.29720   4.46299   4.54030
 Alpha virt. eigenvalues --    4.62179   4.77723   4.85679   4.90252   4.90760
 Alpha virt. eigenvalues --    4.91028   4.91252   4.97746   4.99152   5.00222
 Alpha virt. eigenvalues --    5.10579   5.13304   5.18880   5.34656   5.36677
 Alpha virt. eigenvalues --    5.46912   5.63259   5.75261   5.83167   5.88223
 Alpha virt. eigenvalues --    7.86515  17.27474  17.57071  17.59186  23.47021
 Alpha virt. eigenvalues --   23.55135  23.59231  23.60708  23.67571  23.74782
 Alpha virt. eigenvalues --   23.82819  23.83611  23.83835  23.86187  23.94693
 Alpha virt. eigenvalues --   23.97018  23.97392  23.97844  23.98691  23.99280
 Alpha virt. eigenvalues --   23.99760  23.99803  24.04867  24.07883  24.08350
 Alpha virt. eigenvalues --   24.11656  24.12461  24.12695  24.15968  24.16573
 Alpha virt. eigenvalues --   24.17397  24.18341  24.18798  24.23146  24.24062
 Alpha virt. eigenvalues --   24.25132  24.25295  24.48188  35.70310  35.86765
 Alpha virt. eigenvalues --   49.89975  49.95310  49.96882  50.06594 188.91295
          Condensed to atoms (all electrons):
 Mulliken charges:
               1
     1  C   -0.013195
     2  C   -0.029142
     3  C   -0.107284
     4  C   -0.099788
     5  C   -0.105473
     6  C    0.138043
     7  N   -0.490588
     8  C    0.075735
     9  C   -0.080353
    10  C   -0.101140
    11  C   -0.102060
    12  C   -0.100509
    13  C   -0.079728
    14  C    0.073590
    15  C   -0.079291
    16  C   -0.100792
    17  C   -0.101657
    18  C   -0.100192
    19  C   -0.080088
    20  C   -0.293866
    21  C    0.215808
    22  O   -0.361267
    23  C   -0.052270
    24  C   -0.048311
    25  O   -0.363686
    26  C    0.230780
    27  C   -0.313343
    28  S    0.342723
    29  C    0.014589
    30  C   -0.032615
    31  C   -0.062562
    32  C   -0.113206
    33  C    0.063367
    34  C   -0.231931
    35  C   -0.022759
    36  N   -0.201161
    37  C    0.451289
    38  O   -0.297000
    39  O   -0.307678
    40  C   -0.048539
    41  C   -0.111229
    42  H    0.117591
    43  H    0.124045
    44  H    0.111683
    45  H    0.125581
    46  H    0.119763
    47  H    0.106162
    48  H    0.103711
    49  H    0.106557
    50  H    0.121255
    51  H    0.119907
    52  H    0.106640
    53  H    0.104144
    54  H    0.106601
    55  H    0.120500
    56  H    0.134808
    57  H    0.138463
    58  H    0.140554
    59  H    0.134953
    60  H    0.125032
    61  H    0.108906
    62  H    0.142390
    63  H    0.258045
    64  H    0.134724
    65  H    0.114760
 Sum of Mulliken charges =   0.00000
 Mulliken charges with hydrogens summed into heavy atoms:
               1
     1  C   -0.013195
     2  C    0.088450
     3  C    0.016761
     4  C    0.011895
     5  C    0.020109
     6  C    0.138043
     7  N   -0.490588
     8  C    0.075735
     9  C    0.039410
    10  C    0.005023
    11  C    0.001651
    12  C    0.006048
    13  C    0.041527
    14  C    0.073590
    15  C    0.040616
    16  C    0.005847
    17  C    0.002487
    18  C    0.006409
    19  C    0.040412
    20  C   -0.293866
    21  C    0.215808
    22  O   -0.361267
    23  C    0.221002
    24  C    0.227196
    25  O   -0.363686
    26  C    0.230780
    27  C   -0.313343
    28  S    0.342723
    29  C    0.014589
    30  C    0.092418
    31  C    0.046344
    32  C   -0.113206
    33  C    0.205758
    34  C   -0.231931
    35  C   -0.022759
    36  N   -0.201161
    37  C    0.451289
    38  O   -0.038955
    39  O   -0.307678
    40  C    0.086186
    41  C    0.003531
 Electronic spatial extent (au):  <R**2>=          43528.7522
 Charge=              0.0000 electrons
 Dipole moment (field-independent basis, Debye):
    X=             -8.2667    Y=              5.1381    Z=             -1.5425  Tot=              9.8548
 Quadrupole moment (field-independent basis, Debye-Ang):
   XX=           -317.2824   YY=           -217.9798   ZZ=           -238.5069
   XY=             19.8951   XZ=             -5.9694   YZ=             -0.9040
 Traceless Quadrupole moment (field-independent basis, Debye-Ang):
   XX=            -59.3594   YY=             39.9433   ZZ=             19.4161
   XY=             19.8951   XZ=             -5.9694   YZ=             -0.9040
 Octapole moment (field-independent basis, Debye-Ang**2):
  XXX=          -1219.3517  YYY=            180.0167  ZZZ=             -8.7465  XYY=            -21.2868
  XXY=             81.5233  XXZ=              2.7975  XZZ=            -20.3697  YZZ=             22.5516
  YYZ=            -62.5049  XYZ=            -27.7362
 Hexadecapole moment (field-independent basis, Debye-Ang**3):
 XXXX=         -63604.5517 YYYY=          -5979.2621 ZZZZ=          -2050.1543 XXXY=            586.4333
 XXXZ=           -269.2241 YYYX=            571.0914 YYYZ=           -115.7013 ZZZX=            -17.8825
 ZZZY=             43.3784 XXYY=          -9366.4966 XXZZ=          -8705.8551 YYZZ=          -1378.8338
 XXYZ=            257.9921 YYXZ=            -75.5170 ZZXY=             10.1401
 N-N= 4.184826330570D+03 E-N=-1.332239581901D+04  KE= 2.111746273125D+03
 1\1\GINC-N015\SP\RCAM-B3LYP TD-FC\6-311G(d,p)\C34H24N2O4S1\R2652\07-Ju
 n-2021\0\\#N CAM-B3LYP/6-311G(d,p) TD(NStates=10)\\Name\\0,1\C,0,1.583
 874,-0.556693,-0.16471\C,0,2.616567,-1.501336,-0.011816\C,0,3.942989,-
 1.10998,0.076132\C,0,1.955555,0.799337,-0.216835\C,0,3.278111,1.195779
 ,-0.112784\C,0,4.302513,0.246165,0.0318\N,0,5.653743,0.64486,0.12987\C
 ,0,6.55567,-0.066752,0.971486\C,0,7.83806,-0.397737,0.515342\C,0,8.722
 623,-1.080689,1.344026\C,0,8.340848,-1.457342,2.630424\C,0,7.063338,-1
 .134339,3.084793\C,0,6.178212,-0.43714,2.268997\C,0,6.131217,1.76139,-
 0.614412\C,0,6.956415,2.716346,-0.006713\C,0,7.433142,3.798766,-0.7391
 67\C,0,7.084546,3.955554,-2.079443\C,0,6.258475,3.01007,-2.684947\C,0,
 5.790828,1.91572,-1.964668\C,0,0.185482,-0.96234,-0.25654\C,0,-0.35656
 6,-2.192127,-0.564926\O,0,0.390562,-3.304695,-0.846805\C,0,-0.356626,-
 4.32716,-1.518002\C,0,-1.682531,-4.548965,-0.817823\O,0,-2.477808,-3.3
 53448,-0.866145\C,0,-1.780564,-2.218376,-0.571879\C,0,-2.372844,-1.004
 615,-0.273638\S,0,-1.109661,0.179762,0.039166\C,0,-3.775522,-0.647382,
 -0.180919\C,0,-4.799792,-1.544768,-0.555334\C,0,-6.128149,-1.179214,-0
 .455261\C,0,-6.523026,0.09068,0.016352\C,0,-7.936061,0.366375,0.079998
 \C,0,-8.636656,1.464719,0.478523\C,0,-8.065263,2.673643,0.956033\N,0,-
 7.689718,3.694698,1.356037\C,0,-10.140658,1.395407,0.408212\O,0,-10.81
 3696,2.496137,0.806598\O,0,-10.731511,0.422698,0.021469\C,0,-5.497845,
 0.988283,0.387471\C,0,-4.170822,0.625996,0.290747\H,0,2.374338,-2.5535
 85,0.028009\H,0,4.71425,-1.8622,0.18404\H,0,1.195538,1.562581,-0.34115
 1\H,0,3.52614,2.248973,-0.147733\H,0,8.135862,-0.114688,-0.486946\H,0,
 9.711776,-1.329472,0.975962\H,0,9.030505,-1.99406,3.271253\H,0,6.75613
 4,-1.413,4.086683\H,0,5.191399,-0.176549,2.631921\H,0,7.221172,2.60378
 9,1.037568\H,0,8.070273,4.52997,-0.254258\H,0,7.452466,4.803421,-2.645
 213\H,0,5.986196,3.115491,-3.729222\H,0,5.160487,1.175801,-2.442754\H,
 0,0.25986,-5.225547,-1.485974\H,0,-0.52078,-4.037932,-2.562391\H,0,-1.
 518767,-4.833477,0.22726\H,0,-2.269554,-5.321118,-1.314991\H,0,-4.5412
 52,-2.524766,-0.926188\H,0,-6.894159,-1.888091,-0.751406\H,0,-8.583563
 ,-0.443108,-0.247632\H,0,-10.20914,3.196646,1.089759\H,0,-5.739114,1.9
 75266,0.757291\H,0,-3.417278,1.343373,0.594055\\Version=ES64L-G09RevD.
 01\State=1-A\HF=-2118.1717245\RMSD=6.396e-09\PG=C01 [X(C34H24N2O4S1)]\
 \@


 IT IS BY EATING THE LIGHT OF A STAR THAT WE EXIST, 
 IN THE FINAL ANALYSIS, 
 JUST AS IT IS BY PERCEIVING THE LIGHT OF STARS
 THAT WE DEFINE THE WORLD AROUND US.

                                    -- GILBERT GROSVENOR
 Job cpu time:       0 days  7 hours 11 minutes 47.9 seconds.
 File lengths (MBytes):  RWF=   1930 Int=      0 D2E=      0 Chk=    279 Scr=      1
 Normal termination of Gaussian 09 at Mon Jun  7 17:49:53 2021.
