 Entering Gaussian System, Link 0=g16
 Input=ES.com
 Output=ES.out
 Initial command:
 /usr/local/apps/gaussian/g16-b01-avx2//g16/l1.exe "/tmp/r2532.861517.maple/Gau-9647.inp" -scrdir="/tmp/r2532.861517.maple/"
 Entering Link 1 = /usr/local/apps/gaussian/g16-b01-avx2//g16/l1.exe PID=      9695.
  
 Copyright (c) 1988-2017, Gaussian, Inc.  All Rights Reserved.
  
 This is part of the Gaussian(R) 16 program.  It is based on
 the Gaussian(R) 09 system (copyright 2009, Gaussian, Inc.),
 the Gaussian(R) 03 system (copyright 2003, Gaussian, Inc.),
 the Gaussian(R) 98 system (copyright 1998, Gaussian, Inc.),
 the Gaussian(R) 94 system (copyright 1995, Gaussian, Inc.),
 the Gaussian 92(TM) system (copyright 1992, Gaussian, Inc.),
 the Gaussian 90(TM) system (copyright 1990, Gaussian, Inc.),
 the Gaussian 88(TM) system (copyright 1988, Gaussian, Inc.),
 the Gaussian 86(TM) system (copyright 1986, Carnegie Mellon
 University), and the Gaussian 82(TM) system (copyright 1983,
 Carnegie Mellon University). Gaussian is a federally registered
 trademark of Gaussian, Inc.
  
 This software contains proprietary and confidential information,
 including trade secrets, belonging to Gaussian, Inc.
  
 This software is provided under written license and may be
 used, copied, transmitted, or stored only in accord with that
 written license.
  
 The following legend is applicable only to US Government
 contracts under FAR:
  
                    RESTRICTED RIGHTS LEGEND
  
 Use, reproduction and disclosure by the US Government is
 subject to restrictions as set forth in subparagraphs (a)
 and (c) of the Commercial Computer Software - Restricted
 Rights clause in FAR 52.227-19.
  
 Gaussian, Inc.
 340 Quinnipiac St., Bldg. 40, Wallingford CT 06492
  
  
 ---------------------------------------------------------------
 Warning -- This program may not be used in any manner that
 competes with the business of Gaussian, Inc. or will provide
 assistance to any competitor of Gaussian, Inc.  The licensee
 of this program is prohibited from giving any competitor of
 Gaussian, Inc. access to this program.  By using this program,
 the user acknowledges that Gaussian, Inc. is engaged in the
 business of creating and licensing software in the field of
 computational chemistry and represents and warrants to the
 licensee that it is not a competitor of Gaussian, Inc. and that
 it will not use this program in any manner prohibited above.
 ---------------------------------------------------------------
  

 Cite this work as:
 Gaussian 16, Revision B.01,
 M. J. Frisch, G. W. Trucks, H. B. Schlegel, G. E. Scuseria, 
 M. A. Robb, J. R. Cheeseman, G. Scalmani, V. Barone, 
 G. A. Petersson, H. Nakatsuji, X. Li, M. Caricato, A. V. Marenich, 
 J. Bloino, B. G. Janesko, R. Gomperts, B. Mennucci, H. P. Hratchian, 
 J. V. Ortiz, A. F. Izmaylov, J. L. Sonnenberg, D. Williams-Young, 
 F. Ding, F. Lipparini, F. Egidi, J. Goings, B. Peng, A. Petrone, 
 T. Henderson, D. Ranasinghe, V. G. Zakrzewski, J. Gao, N. Rega, 
 G. Zheng, W. Liang, M. Hada, M. Ehara, K. Toyota, R. Fukuda, 
 J. Hasegawa, M. Ishida, T. Nakajima, Y. Honda, O. Kitao, H. Nakai, 
 T. Vreven, K. Throssell, J. A. Montgomery, Jr., J. E. Peralta, 
 F. Ogliaro, M. J. Bearpark, J. J. Heyd, E. N. Brothers, K. N. Kudin, 
 V. N. Staroverov, T. A. Keith, R. Kobayashi, J. Normand, 
 K. Raghavachari, A. P. Rendell, J. C. Burant, S. S. Iyengar, 
 J. Tomasi, M. Cossi, J. M. Millam, M. Klene, C. Adamo, R. Cammi, 
 J. W. Ochterski, R. L. Martin, K. Morokuma, O. Farkas, 
 J. B. Foresman, and D. J. Fox, Gaussian, Inc., Wallingford CT, 2016.
 
 ******************************************
 Gaussian 16:  ES64L-G16RevB.01 20-Dec-2017
                16-Jun-2021 
 ******************************************
 %mem=8gb
 ------------------------------------
 #N TD(NStates=10) wB97XD/6-311G(d,p)
 ------------------------------------
 1/38=1,172=1/1;
 2/12=2,17=6,18=5,40=1/2;
 3/5=4,6=6,7=101,11=9,25=1,30=1,74=-58/1,2,3,8;
 4//1;
 5/5=2,38=5/2;
 8/6=1,10=2,108=10/1;
 9/41=10,42=1,70=2/14;
 6/7=2,8=2,9=2,10=2/1;
 99/5=1,9=1/99;
 ----
 Name
 ----
 Symbolic Z-matrix:
 Charge =  0 Multiplicity = 1
 6                     0.93737  -3.07345  -0.18667 
 6                     2.12287  -2.11525  -0.08166 
 6                     1.67932  -0.8041    0.06845 
 6                     0.24933  -0.78717   0.07773 
 16                   -1.03641   0.36103   0.21552 
 6                    -2.23886  -0.92615   0.05558 
 6                    -3.66345  -0.61872   0.08808 
 6                    -4.16707   0.63979  -0.28462 
 6                    -5.52322   0.91821  -0.26005 
 6                    -6.45364  -0.05647   0.14537 
 7                    -7.82802   0.22115   0.17817 
 6                    -8.3007    1.55297   0.38581 
 6                    -9.2542    2.10972  -0.46577 
 1                    -9.62521   1.52842  -1.30142 
 6                    -9.74567   3.39753  -0.25291 
 6                    -9.267     4.15743   0.81702 
 6                    -8.3043    3.60531   1.67269 
 6                    -7.83674   2.31876   1.46616 
 1                    -7.10302   1.89706   2.14277 
 1                    -7.95078   4.20256   2.50434 
 8                    -9.66831   5.42528   1.11427 
 6                    -10.64223   6.03995   0.28244 
 1                    -10.28531   6.13903  -0.74886 
 1                    -11.58568   5.48251   0.28856 
 1                    -10.80803   7.03089   0.70155 
 1                    -10.48879   3.79437  -0.93121 
 6                    -8.79054  -0.816    -0.01459 
 6                    -8.70689  -1.68172  -1.10535 
 6                    -9.64725  -2.69412  -1.29497 
 6                    -10.70787  -2.83637  -0.39654 
 6                    -10.80507  -1.9603    0.69236 
 6                    -9.85575  -0.97086   0.88449 
 1                    -9.93578  -0.30347   1.73416 
 1                    -11.63103  -2.0851    1.38194 
 8                    -11.68672  -3.78038  -0.48918 
 6                    -11.64573  -4.69413  -1.57594 
 1                    -11.72295  -4.17736  -2.53919 
 1                    -10.73103  -5.29752  -1.55983 
 1                    -12.50803  -5.34631  -1.44855 
 1                    -9.54839  -3.34875  -2.15031 
 1                    -7.89486  -1.56908  -1.81389 
 6                    -5.95718  -1.31887   0.52374 
 6                    -4.60013  -1.58717   0.49474 
 1                    -4.25383  -2.55733   0.83193 
 1                    -6.64587  -2.0827    0.86097 
 1                    -5.87359   1.89365  -0.57133 
 1                    -3.48639   1.40814  -0.63469 
 6                    -1.62549  -2.16105  -0.07841 
 6                    -0.21972  -2.0834   -0.06482 
 1                    -2.19197  -3.07258  -0.2147 
 16                    2.97765   0.32206   0.18497 
 6                     4.16218  -0.98809   0.01242 
 6                     3.51621  -2.21773  -0.11396 
 1                     4.06458  -3.14215  -0.24465 
 6                     5.56705  -0.7373    0.04514 
 16                    6.68086  -2.03652   0.37656 
 6                     8.11724  -1.00735   0.24972 
 6                     7.69972   0.29807  -0.01318 
 6                     6.28361   0.45519  -0.1447 
 6                     5.91829   1.77686  -0.54353 
 6                     7.00203   2.58067  -0.71621 
 16                    8.54275   1.78183  -0.38 
 6                     6.92949   3.99545  -1.12736 
 8                     5.9002    4.58649  -1.35272 
 8                     8.15699   4.5424   -1.22147 
 6                     8.20206   5.92907  -1.60434 
 1                     7.75699   6.06463  -2.59108 
 1                     7.66179   6.53969  -0.87974 
 1                     9.25704   6.19099  -1.61758 
 1                     4.91461   2.13592  -0.71661 
 6                     9.37614  -1.65344   0.3541 
 6                     10.62216  -1.15892   0.65376 
 6                     10.83171   0.14424   1.17759 
 7                     10.99525   1.19398   1.63525 
 6                     11.83447  -2.03674   0.64516 
 8                     11.76302  -3.14754  -0.14686 
 1                     11.0612  -3.0442   -0.79945 
 8                     12.81695  -1.81893   1.29612 
 1                     9.33135  -2.73041   0.20604 
 6                     0.91727  -3.80042  -1.54825 
 1                     0.92417  -3.0863   -2.37401 
 1                     1.78943  -4.45222  -1.6488 
 1                     0.02102  -4.42022  -1.63746 
 6                     0.93018  -4.09326   0.97224 
 1                     0.94722  -3.58743   1.93955 
 1                     0.0336   -4.71732   0.9264 
 1                     1.80217  -4.75016   0.91157 
 
 Stoichiometry    C43H32N2O6S4
 Framework group  C1[X(C43H32N2O6S4)]
 Deg. of freedom   255
 Full point group                 C1      NOp   1
 Largest Abelian subgroup         C1      NOp   1
 Largest concise Abelian subgroup C1      NOp   1
                         Standard orientation:                         
 ---------------------------------------------------------------------
 Center     Atomic      Atomic             Coordinates (Angstroms)
 Number     Number       Type             X           Y           Z
 ---------------------------------------------------------------------
      1          6           0       -0.937367   -3.073447    0.186672
      2          6           0       -2.122867   -2.115248    0.081661
      3          6           0       -1.679316   -0.804099   -0.068452
      4          6           0       -0.249325   -0.787165   -0.077728
      5         16           0        1.036410    0.361025   -0.215518
      6          6           0        2.238860   -0.926149   -0.055578
      7          6           0        3.663445   -0.618716   -0.088081
      8          6           0        4.167072    0.639785    0.284618
      9          6           0        5.523215    0.918205    0.260048
     10          6           0        6.453643   -0.056471   -0.145370
     11          7           0        7.828021    0.221147   -0.178165
     12          6           0        8.300703    1.552970   -0.385806
     13          6           0        9.254197    2.109715    0.465769
     14          1           0        9.625209    1.528423    1.301420
     15          6           0        9.745666    3.397532    0.252908
     16          6           0        9.267005    4.157431   -0.817016
     17          6           0        8.304305    3.605310   -1.672687
     18          6           0        7.836741    2.318757   -1.466163
     19          1           0        7.103023    1.897060   -2.142771
     20          1           0        7.950783    4.202556   -2.504337
     21          8           0        9.668305    5.425275   -1.114274
     22          6           0       10.642233    6.039950   -0.282435
     23          1           0       10.285306    6.139026    0.748855
     24          1           0       11.585682    5.482513   -0.288556
     25          1           0       10.808033    7.030888   -0.701547
     26          1           0       10.488787    3.794368    0.931210
     27          6           0        8.790537   -0.816003    0.014590
     28          6           0        8.706892   -1.681719    1.105345
     29          6           0        9.647255   -2.694117    1.294967
     30          6           0       10.707870   -2.836370    0.396541
     31          6           0       10.805065   -1.960304   -0.692355
     32          6           0        9.855745   -0.970857   -0.884487
     33          1           0        9.935782   -0.303465   -1.734163
     34          1           0       11.631034   -2.085101   -1.381938
     35          8           0       11.686719   -3.780380    0.489179
     36          6           0       11.645727   -4.694126    1.575939
     37          1           0       11.722954   -4.177359    2.539191
     38          1           0       10.731032   -5.297522    1.559834
     39          1           0       12.508032   -5.346312    1.448547
     40          1           0        9.548391   -3.348753    2.150306
     41          1           0        7.894861   -1.569078    1.813892
     42          6           0        5.957184   -1.318867   -0.523743
     43          6           0        4.600126   -1.587169   -0.494737
     44          1           0        4.253834   -2.557328   -0.831925
     45          1           0        6.645870   -2.082701   -0.860973
     46          1           0        5.873589    1.893646    0.571326
     47          1           0        3.486389    1.408137    0.634689
     48          6           0        1.625489   -2.161053    0.078410
     49          6           0        0.219718   -2.083396    0.064821
     50          1           0        2.191968   -3.072577    0.214700
     51         16           0       -2.977646    0.322058   -0.184968
     52          6           0       -4.162184   -0.988087   -0.012416
     53          6           0       -3.516210   -2.217730    0.113955
     54          1           0       -4.064580   -3.142153    0.244654
     55          6           0       -5.567054   -0.737299   -0.045138
     56         16           0       -6.680862   -2.036515   -0.376555
     57          6           0       -8.117241   -1.007346   -0.249715
     58          6           0       -7.699721    0.298072    0.013178
     59          6           0       -6.283611    0.455188    0.144695
     60          6           0       -5.918293    1.776862    0.543528
     61          6           0       -7.002029    2.580666    0.716207
     62         16           0       -8.542754    1.781825    0.380001
     63          6           0       -6.929485    3.995445    1.127359
     64          8           0       -5.900200    4.586493    1.352715
     65          8           0       -8.156994    4.542399    1.221469
     66          6           0       -8.202058    5.929065    1.604344
     67          1           0       -7.756993    6.064628    2.591080
     68          1           0       -7.661788    6.539691    0.879736
     69          1           0       -9.257040    6.190991    1.617581
     70          1           0       -4.914608    2.135918    0.716605
     71          6           0       -9.376140   -1.653440   -0.354095
     72          6           0      -10.622163   -1.158916   -0.653764
     73          6           0      -10.831709    0.144243   -1.177590
     74          7           0      -10.995247    1.193976   -1.635252
     75          6           0      -11.834467   -2.036742   -0.645164
     76          8           0      -11.763023   -3.147544    0.146859
     77          1           0      -11.061204   -3.044195    0.799445
     78          8           0      -12.816952   -1.818928   -1.296115
     79          1           0       -9.331350   -2.730405   -0.206037
     80          6           0       -0.917271   -3.800420    1.548251
     81          1           0       -0.924169   -3.086302    2.374015
     82          1           0       -1.789433   -4.452223    1.648799
     83          1           0       -0.021019   -4.420217    1.637464
     84          6           0       -0.930182   -4.093261   -0.972236
     85          1           0       -0.947217   -3.587426   -1.939546
     86          1           0       -0.033600   -4.717316   -0.926403
     87          1           0       -1.802170   -4.750158   -0.911574
 ---------------------------------------------------------------------
 Rotational constants (GHZ):           0.0816788           0.0106340           0.0095919
 Standard basis: 6-311G(d,p) (5D, 7F)
 There are  1269 symmetry adapted cartesian basis functions of A   symmetry.
 There are  1214 symmetry adapted basis functions of A   symmetry.
  1214 basis functions,  2072 primitive gaussians,  1269 cartesian basis functions
   208 alpha electrons      208 beta electrons
       nuclear repulsion energy      7134.6351005501 Hartrees.
 NAtoms=   87 NActive=   87 NUniq=   87 SFac= 1.00D+00 NAtFMM=   60 NAOKFM=T Big=T
 Integral buffers will be    131072 words long.
 Raffenetti 1 integral format.
 Two-electron integral symmetry is turned on.
 Nuclear repulsion after empirical dispersion term =     7134.5660971593 Hartrees.
 One-electron integrals computed using PRISM.
 NBasis=  1214 RedAO= T EigKep=  1.41D-04  NBF=  1214
 NBsUse=  1214 1.00D-06 EigRej= -1.00D+00 NBFU=  1214
 ExpMin= 7.71D-02 ExpMax= 9.34D+04 ExpMxC= 3.17D+03 IAcc=3 IRadAn=         5 AccDes= 0.00D+00
 Harris functional with IExCor= 4639 and IRadAn=       5 diagonalized for initial guess.
 HarFok:  IExCor= 4639 AccDes= 0.00D+00 IRadAn=         5 IDoV= 1 UseB2=F ITyADJ=14
 ICtDFT=  3500011 ScaDFX=  1.000000  1.000000  1.000000  1.000000
 FoFCou: FMM=F IPFlag=           0 FMFlag=      100000 FMFlg1=        2001
         NFxFlg=           0 DoJE=T BraDBF=F KetDBF=T FulRan=T
         wScrn=  0.000000 ICntrl=       500 IOpCl=  0 I1Cent=   200000004 NGrid=           0
         NMat0=    1 NMatS0=      1 NMatT0=    0 NMatD0=    1 NMtDS0=    0 NMtDT0=    0
 Petite list used in FoFCou.
 Requested convergence on RMS density matrix=1.00D-08 within 128 cycles.
 Requested convergence on MAX density matrix=1.00D-06.
 Requested convergence on             energy=1.00D-06.
 No special actions if energy rises.
 Integral accuracy reduced to 1.0D-05 until final iterations.
 Initial convergence to 1.0D-05 achieved.  Increase integral accuracy.
 SCF Done:  E(RwB97XD) =  -3811.19894870     A.U. after   21 cycles
            NFock= 21  Conv=0.55D-08     -V/T= 2.0029
 DoSCS=F DFT=T ScalE2(SS,OS)=  1.000000  1.000000
 ExpMin= 7.71D-02 ExpMax= 9.34D+04 ExpMxC= 3.17D+03 IAcc=3 IRadAn=         5 AccDes= 0.00D+00
 HarFok:  IExCor=  205 AccDes= 0.00D+00 IRadAn=         5 IDoV=-2 UseB2=F ITyADJ=14
 ICtDFT= 12500011 ScaDFX=  1.000000  1.000000  1.000000  1.000000
 GSVD:  LWork=       -5609 too small for GESVD, short by       26270 words or       26270 for optimal perf.
 Range of M.O.s used for correlation:    72  1214
 NBasis=  1214 NAE=   208 NBE=   208 NFC=    71 NFV=     0
 NROrb=   1143 NOA=   137 NOB=   137 NVA=  1006 NVB=  1006

 **** Warning!!: The largest alpha MO coefficient is  0.12531081D+02

 Orbital symmetries:
       Occupied  (A) (A) (A) (A) (A) (A) (A) (A) (A) (A) (A) (A)
                 (A) (A) (A) (A) (A) (A) (A) (A) (A) (A) (A) (A)
                 (A) (A) (A) (A) (A) (A) (A) (A) (A) (A) (A) (A)
                 (A) (A) (A) (A) (A) (A) (A) (A) (A) (A) (A) (A)
                 (A) (A) (A) (A) (A) (A) (A) (A) (A) (A) (A) (A)
                 (A) (A) (A) (A) (A) (A) (A) (A) (A) (A) (A) (A)
                 (A) (A) (A) (A) (A) (A) (A) (A) (A) (A) (A) (A)
                 (A) (A) (A) (A) (A) (A) (A) (A) (A) (A) (A) (A)
                 (A) (A) (A) (A) (A) (A) (A) (A) (A) (A) (A) (A)
                 (A) (A) (A) (A) (A) (A) (A) (A) (A) (A) (A) (A)
                 (A) (A) (A) (A) (A) (A) (A) (A) (A) (A) (A) (A)
                 (A) (A) (A) (A) (A) (A) (A) (A) (A) (A) (A) (A)
                 (A) (A) (A) (A) (A) (A) (A) (A) (A) (A) (A) (A)
                 (A) (A) (A) (A) (A) (A) (A) (A) (A) (A) (A) (A)
                 (A) (A) (A) (A) (A) (A) (A) (A) (A) (A) (A) (A)
                 (A) (A) (A) (A) (A) (A) (A) (A) (A) (A) (A) (A)
                 (A) (A) (A) (A) (A) (A) (A) (A) (A) (A) (A) (A)
                 (A) (A) (A) (A)
       Virtual   (A) (A) (A) (A) (A) (A) (A) (A) (A) (A) (A) (A)
                 (A) (A) (A) (A) (A) (A) (A) (A) (A) (A) (A) (A)
                 (A) (A) (A) (A) (A) (A) (A) (A) (A) (A) (A) (A)
                 (A) (A) (A) (A) (A) (A) (A) (A) (A) (A) (A) (A)
                 (A) (A) (A) (A) (A) (A) (A) (A) (A) (A) (A) (A)
                 (A) (A) (A) (A) (A) (A) (A) (A) (A) (A) (A) (A)
                 (A) (A) (A) (A) (A) (A) (A) (A) (A) (A) (A) (A)
                 (A) (A) (A) (A) (A) (A) (A) (A) (A) (A) (A) (A)
                 (A) (A) (A) (A) (A) (A) (A) (A) (A) (A) (A) (A)
                 (A) (A) (A) (A) (A) (A) (A) (A) (A) (A) (A) (A)
                 (A) (A) (A) (A) (A) (A) (A) (A) (A) (A) (A) (A)
                 (A) (A) (A) (A) (A) (A) (A) (A) (A) (A) (A) (A)
                 (A) (A) (A) (A) (A) (A) (A) (A) (A) (A) (A) (A)
                 (A) (A) (A) (A) (A) (A) (A) (A) (A) (A) (A) (A)
                 (A) (A) (A) (A) (A) (A) (A) (A) (A) (A) (A) (A)
                 (A) (A) (A) (A) (A) (A) (A) (A) (A) (A) (A) (A)
                 (A) (A) (A) (A) (A) (A) (A) (A) (A) (A) (A) (A)
                 (A) (A) (A) (A) (A) (A) (A) (A) (A) (A) (A) (A)
                 (A) (A) (A) (A) (A) (A) (A) (A) (A) (A) (A) (A)
                 (A) (A) (A) (A) (A) (A) (A) (A) (A) (A) (A) (A)
                 (A) (A) (A) (A) (A) (A) (A) (A) (A) (A) (A) (A)
                 (A) (A) (A) (A) (A) (A) (A) (A) (A) (A) (A) (A)
                 (A) (A) (A) (A) (A) (A) (A) (A) (A) (A) (A) (A)
                 (A) (A) (A) (A) (A) (A) (A) (A) (A) (A) (A) (A)
                 (A) (A) (A) (A) (A) (A) (A) (A) (A) (A) (A) (A)
                 (A) (A) (A) (A) (A) (A) (A) (A) (A) (A) (A) (A)
                 (A) (A) (A) (A) (A) (A) (A) (A) (A) (A) (A) (A)
                 (A) (A) (A) (A) (A) (A) (A) (A) (A) (A) (A) (A)
                 (A) (A) (A) (A) (A) (A) (A) (A) (A) (A) (A) (A)
                 (A) (A) (A) (A) (A) (A) (A) (A) (A) (A) (A) (A)
                 (A) (A) (A) (A) (A) (A) (A) (A) (A) (A) (A) (A)
                 (A) (A) (A) (A) (A) (A) (A) (A) (A) (A) (A) (A)
                 (A) (A) (A) (A) (A) (A) (A) (A) (A) (A) (A) (A)
                 (A) (A) (A) (A) (A) (A) (A) (A) (A) (A) (A) (A)
                 (A) (A) (A) (A) (A) (A) (A) (A) (A) (A) (A) (A)
                 (A) (A) (A) (A) (A) (A) (A) (A) (A) (A) (A) (A)
                 (A) (A) (A) (A) (A) (A) (A) (A) (A) (A) (A) (A)
                 (A) (A) (A) (A) (A) (A) (A) (A) (A) (A) (A) (A)
                 (A) (A) (A) (A) (A) (A) (A) (A) (A) (A) (A) (A)
                 (A) (A) (A) (A) (A) (A) (A) (A) (A) (A) (A) (A)
                 (A) (A) (A) (A) (A) (A) (A) (A) (A) (A) (A) (A)
                 (A) (A) (A) (A) (A) (A) (A) (A) (A) (A) (A) (A)
                 (A) (A) (A) (A) (A) (A) (A) (A) (A) (A) (A) (A)
                 (A) (A) (A) (A) (A) (A) (A) (A) (A) (A) (A) (A)
                 (A) (A) (A) (A) (A) (A) (A) (A) (A) (A) (A) (A)
                 (A) (A) (A) (A) (A) (A) (A) (A) (A) (A) (A) (A)
                 (A) (A) (A) (A) (A) (A) (A) (A) (A) (A) (A) (A)
                 (A) (A) (A) (A) (A) (A) (A) (A) (A) (A) (A) (A)
                 (A) (A) (A) (A) (A) (A) (A) (A) (A) (A) (A) (A)
                 (A) (A) (A) (A) (A) (A) (A) (A) (A) (A) (A) (A)
                 (A) (A) (A) (A) (A) (A) (A) (A) (A) (A) (A) (A)
                 (A) (A) (A) (A) (A) (A) (A) (A) (A) (A) (A) (A)
                 (A) (A) (A) (A) (A) (A) (A) (A) (A) (A) (A) (A)
                 (A) (A) (A) (A) (A) (A) (A) (A) (A) (A) (A) (A)
                 (A) (A) (A) (A) (A) (A) (A) (A) (A) (A) (A) (A)
                 (A) (A) (A) (A) (A) (A) (A) (A) (A) (A) (A) (A)
                 (A) (A) (A) (A) (A) (A) (A) (A) (A) (A) (A) (A)
                 (A) (A) (A) (A) (A) (A) (A) (A) (A) (A) (A) (A)
                 (A) (A) (A) (A) (A) (A) (A) (A) (A) (A) (A) (A)
                 (A) (A) (A) (A) (A) (A) (A) (A) (A) (A) (A) (A)
                 (A) (A) (A) (A) (A) (A) (A) (A) (A) (A) (A) (A)
                 (A) (A) (A) (A) (A) (A) (A) (A) (A) (A) (A) (A)
                 (A) (A) (A) (A) (A) (A) (A) (A) (A) (A) (A) (A)
                 (A) (A) (A) (A) (A) (A) (A) (A) (A) (A) (A) (A)
                 (A) (A) (A) (A) (A) (A) (A) (A) (A) (A) (A) (A)
                 (A) (A) (A) (A) (A) (A) (A) (A) (A) (A) (A) (A)
                 (A) (A) (A) (A) (A) (A) (A) (A) (A) (A) (A) (A)
                 (A) (A) (A) (A) (A) (A) (A) (A) (A) (A) (A) (A)
                 (A) (A) (A) (A) (A) (A) (A) (A) (A) (A) (A) (A)
                 (A) (A) (A) (A) (A) (A) (A) (A) (A) (A) (A) (A)
                 (A) (A) (A) (A) (A) (A) (A) (A) (A) (A) (A) (A)
                 (A) (A) (A) (A) (A) (A) (A) (A) (A) (A) (A) (A)
                 (A) (A) (A) (A) (A) (A) (A) (A) (A) (A) (A) (A)
                 (A) (A) (A) (A) (A) (A) (A) (A) (A) (A) (A) (A)
                 (A) (A) (A) (A) (A) (A) (A) (A) (A) (A) (A) (A)
                 (A) (A) (A) (A) (A) (A) (A) (A) (A) (A) (A) (A)
                 (A) (A) (A) (A) (A) (A) (A) (A) (A) (A) (A) (A)
                 (A) (A) (A) (A) (A) (A) (A) (A) (A) (A) (A) (A)
                 (A) (A) (A) (A) (A) (A) (A) (A) (A) (A) (A) (A)
                 (A) (A) (A) (A) (A) (A) (A) (A) (A) (A) (A) (A)
                 (A) (A) (A) (A) (A) (A) (A) (A) (A) (A) (A) (A)
                 (A) (A) (A) (A) (A) (A) (A) (A) (A) (A) (A) (A)
                 (A) (A) (A) (A) (A) (A) (A) (A) (A) (A) (A) (A)
                 (A) (A) (A) (A) (A) (A) (A) (A) (A) (A)
    40 initial guesses have been made.
 Convergence on wavefunction:    0.001000000000000
 Iteration     1 Dimension    40 NMult     0 NNew     40
 CISAX will form    40 AO SS matrices at one time.
 New state      4 was old state      5
 New state      5 was old state      4
 New state      6 was old state     12
 New state      7 was old state     11
 New state      8 was old state     18
 New state     10 was old state     19
 Iteration     2 Dimension    60 NMult    40 NNew     20
 New state      8 was old state      9
 New state      9 was old state      8
 Iteration     3 Dimension    80 NMult    60 NNew     20
 Iteration     4 Dimension   100 NMult    80 NNew     20
 Iteration     5 Dimension   120 NMult   100 NNew     20
 Iteration     6 Dimension   136 NMult   120 NNew     16
 Iteration     7 Dimension   146 NMult   136 NNew     10
 Iteration     8 Dimension   152 NMult   146 NNew      6
 Iteration     9 Dimension   158 NMult   152 NNew      6
 Iteration    10 Dimension   162 NMult   158 NNew      4
 Iteration    11 Dimension   166 NMult   162 NNew      4
 Iteration    12 Dimension   170 NMult   166 NNew      4
 Iteration    13 Dimension   174 NMult   170 NNew      4
 Iteration    14 Dimension   178 NMult   174 NNew      4
 Iteration    15 Dimension   180 NMult   178 NNew      2
 Iteration    16 Dimension   182 NMult   180 NNew      2
 Iteration    17 Dimension   184 NMult   182 NNew      2
 Iteration    18 Dimension   186 NMult   184 NNew      2
 Iteration    19 Dimension   188 NMult   186 NNew      2
 Convergence on energies, max DE= 9.91D-06.
 ***********************************************************************
 Excited states from <AA,BB:AA,BB> singles matrix:
 ***********************************************************************
 
 Ground to excited state transition densities written to RWF  633
 Ground to excited state transition electric dipole moments (Au):
       state          X           Y           Z        Dip. S.      Osc.
         1         5.6145     -0.2503      0.1819     31.6183      1.8451
         2         1.1723     -0.0653     -0.3625      1.5101      0.1236
         3        -0.8823     -0.9744     -0.3789      1.8714      0.1692
         4         1.5010      0.7922      0.1994      2.9205      0.2793
         5        -0.3041      0.3714      0.1428      0.2508      0.0250
         6        -0.1572     -0.1496      0.4819      0.2793      0.0282
         7        -0.0595     -1.1485     -0.4077      1.4888      0.1535
         8        -1.1721     -0.2516     -0.0603      1.4407      0.1583
         9         0.1282     -0.3684     -0.0912      0.1605      0.0180
        10        -0.1546      0.1781      0.0363      0.0569      0.0065
 Ground to excited state transition velocity dipole moments (Au):
       state          X           Y           Z        Dip. S.      Osc.
         1        -0.4830      0.0238     -0.0178      0.2342      1.7836
         2        -0.1434      0.0062      0.0457      0.0227      0.1232
         3         0.1124      0.1344      0.0529      0.0335      0.1647
         4        -0.2159     -0.1165     -0.0305      0.0611      0.2841
         5         0.0443     -0.0512     -0.0206      0.0050      0.0223
         6         0.0232      0.0184     -0.0889      0.0088      0.0387
         7         0.0075      0.1698      0.0609      0.0326      0.1405
         8         0.1955      0.0385      0.0096      0.0398      0.1609
         9        -0.0225      0.0574      0.0229      0.0043      0.0172
        10         0.0195     -0.0250     -0.0053      0.0010      0.0041
 Ground to excited state transition magnetic dipole moments (Au):
       state          X           Y           Z
         1         0.0196     -0.2508     -1.3835
         2        -0.1532      0.7412     -1.2362
         3        -0.1046      0.5826     -0.7376
         4        -0.0198     -0.1899      0.3193
         5        -0.0134     -0.1067      1.0022
         6        -0.0411      1.6141      1.0739
         7        -0.1397      0.6732     -1.9203
         8         0.1438     -0.2107      0.5467
         9        -0.0372      0.4570     -0.4365
        10         0.2254      0.5027      0.6658
 Ground to excited state transition velocity quadrupole moments (Au):
       state          XX          YY          ZZ          XY          XZ          YZ
         1         4.8534     -0.0374      0.0268      0.1803      0.4505      0.1319
         2        -8.6743     -0.0181     -0.0716     -1.1824     -0.9046      0.1289
         3        -0.8001      0.7741      0.0126     -1.7583     -0.9554      0.1907
         4        -4.2581     -0.5230     -0.0371      0.5252      0.3463      0.0124
         5        -1.5364     -0.1914     -0.0030      0.4348      0.0722      0.0479
         6         0.4308      0.1120      0.0479      0.1312     -1.4822     -0.0210
         7        -1.8505      0.5725     -0.0232     -2.7635     -0.9062      0.2859
         8         2.9998      0.4738      0.0513      0.0996      0.1117     -0.1893
         9        -1.3093      0.1452     -0.0158     -0.7378     -0.4366      0.0836
        10        -2.2117     -0.1357     -0.0411      0.0641     -0.6524     -0.0485
 <0|del|b> * <b|rxdel|0> + <0|del|b> * <b|delr+rdel|0>
 Rotatory Strengths (R) in cgs (10**-40 erg-esu-cm/Gauss)
       state          XX          YY          ZZ    R(velocity)    E-M Angle
         1        18.9735   -183.1809    238.4590     24.7505       89.23
         2      -288.7717      2.9419    113.5547    -57.4250       97.88
         3       194.4664    166.0764   -217.1039     47.8130       80.86
         4        90.4244     19.4383    -27.7179     27.3816       79.56
         5       -48.1821    -23.9631     -2.2341    -24.7931      102.74
         6      -117.4095   -199.0584      4.5682   -103.9666      111.57
         7       -38.7541    119.8665    -97.8101     -5.5659       90.57
         8       -13.2739     -9.8348    131.4981     36.1298       77.88
         9        51.3269     12.3195      8.1765     23.9410       65.79
        10       -68.0786      0.5717     18.8943    -16.2042      114.88
 1/2[<0|r|b>*<b|rxdel|0> + (<0|rxdel|b>*<b|r|0>)*]
 Rotatory Strengths (R) in cgs (10**-40 erg-esu-cm/Gauss)
       state          XX          YY          ZZ     R(length)
         1       -77.7128    -44.3864    177.9710     18.6239
         2       126.9912     34.2415   -316.9419    -51.9031
         3       -65.2348    401.4666   -197.6541     46.1926
         4        21.0599    106.4081    -45.0190     27.4830
         5        -2.8824     28.0316   -101.1772    -25.3427
         6        -4.5660    170.7808   -365.9618    -66.5823
         7        -5.8827    546.7567   -553.5991     -4.2417
         8       119.2224    -37.4855     23.3090     35.0153
         9         3.3730    119.0430    -28.1589     31.4190
        10        24.6357    -63.3015    -17.0755    -18.5804
  1/2[<0|del|b>*<b|r|0> + (<0|r|b>*<b|del|0>)*] (Au)
       state          X           Y           Z        Dip. S.   Osc.(frdel)
         1        -2.7119     -0.0060     -0.0032      2.7211      1.8140
         2        -0.1681     -0.0004     -0.0166      0.1851      0.1234
         3        -0.0992     -0.1310     -0.0201      0.2502      0.1668
         4        -0.3241     -0.0923     -0.0061      0.4225      0.2817
         5        -0.0135     -0.0190     -0.0029      0.0354      0.0236
         6        -0.0036     -0.0027     -0.0429      0.0493      0.0328
         7        -0.0004     -0.1950     -0.0248      0.2202      0.1468
         8        -0.2291     -0.0097     -0.0006      0.2394      0.1596
         9        -0.0029     -0.0212     -0.0021      0.0261      0.0174
        10        -0.0030     -0.0045     -0.0002      0.0077      0.0051

 Excitation energies and oscillator strengths:
 
 Excited State   1:      Singlet-A      2.3819 eV  520.53 nm  f=1.8451  <S**2>=0.000
     207 -> 209       -0.39847
     208 -> 209        0.53994
     208 -> 210       -0.10163
 This state for optimization and/or second-order correction.
 Total Energy, E(TD-HF/TD-DFT) =  -3811.11141623    
 Copying the excited state density for this state as the 1-particle RhoCI density.
 
 Excited State   2:      Singlet-A      3.3420 eV  370.99 nm  f=0.1236  <S**2>=0.000
     204 -> 209        0.10812
     206 -> 209        0.38303
     207 -> 209        0.33356
     207 -> 210        0.13435
     208 -> 209        0.17431
     208 -> 210       -0.29122
     208 -> 211        0.25422
 
 Excited State   3:      Singlet-A      3.6914 eV  335.87 nm  f=0.1692  <S**2>=0.000
     206 -> 209       -0.10187
     206 -> 210        0.23533
     206 -> 211        0.10072
     207 -> 209       -0.15955
     207 -> 210        0.44282
     208 -> 209       -0.15457
     208 -> 210       -0.32187
     208 -> 211       -0.16350
 
 Excited State   4:      Singlet-A      3.9033 eV  317.64 nm  f=0.2793  <S**2>=0.000
     204 -> 209       -0.23603
     206 -> 209       -0.33264
     208 -> 209       -0.11689
     208 -> 210       -0.14698
     208 -> 211        0.43141
     208 -> 213       -0.16188
 
 Excited State   5:      Singlet-A      4.0688 eV  304.72 nm  f=0.0250  <S**2>=0.000
     202 -> 209       -0.21882
     203 -> 209       -0.19388
     204 -> 209       -0.18637
     206 -> 209       -0.13894
     206 -> 210        0.10086
     207 -> 209        0.29945
     207 -> 211        0.28937
     208 -> 209        0.26294
     208 -> 211       -0.21363
 
 Excited State   6:      Singlet-A      4.1225 eV  300.75 nm  f=0.0282  <S**2>=0.000
     207 -> 212        0.32731
     208 -> 212        0.56279
 
 Excited State   7:      Singlet-A      4.2078 eV  294.65 nm  f=0.1535  <S**2>=0.000
     202 -> 209        0.48350
     203 -> 209        0.33248
     206 -> 209       -0.14921
     207 -> 209        0.10855
     207 -> 211        0.17099
     208 -> 211       -0.10317
 
 Excited State   8:      Singlet-A      4.4859 eV  276.38 nm  f=0.1583  <S**2>=0.000
     198 -> 209       -0.30004
     204 -> 209       -0.14668
     207 -> 209        0.13513
     207 -> 211       -0.26818
     208 -> 209        0.15414
     208 -> 213        0.32622
     208 -> 214       -0.17748
     208 -> 218        0.14647
 
 Excited State   9:      Singlet-A      4.5770 eV  270.88 nm  f=0.0180  <S**2>=0.000
     198 -> 209       -0.24067
     206 -> 209        0.12025
     206 -> 214        0.17297
     207 -> 209       -0.10091
     207 -> 213        0.21917
     207 -> 214        0.32453
     208 -> 213       -0.26347
     208 -> 214       -0.24900
 
 Excited State  10:      Singlet-A      4.6251 eV  268.07 nm  f=0.0065  <S**2>=0.000
     195 -> 209        0.25848
     195 -> 210        0.20819
     196 -> 209        0.29902
     196 -> 210        0.23241
     197 -> 209       -0.27340
     197 -> 210       -0.10672
     208 -> 214        0.11964
     208 -> 216        0.14088
 SavETr:  write IOETrn=   770 NScale= 10 NData=  16 NLR=1 NState=   10 LETran=     190.

 **********************************************************************

            Population analysis using the SCF Density.

 **********************************************************************

 Orbital symmetries:
       Occupied  (A) (A) (A) (A) (A) (A) (A) (A) (A) (A) (A) (A)
                 (A) (A) (A) (A) (A) (A) (A) (A) (A) (A) (A) (A)
                 (A) (A) (A) (A) (A) (A) (A) (A) (A) (A) (A) (A)
                 (A) (A) (A) (A) (A) (A) (A) (A) (A) (A) (A) (A)
                 (A) (A) (A) (A) (A) (A) (A) (A) (A) (A) (A) (A)
                 (A) (A) (A) (A) (A) (A) (A) (A) (A) (A) (A) (A)
                 (A) (A) (A) (A) (A) (A) (A) (A) (A) (A) (A) (A)
                 (A) (A) (A) (A) (A) (A) (A) (A) (A) (A) (A) (A)
                 (A) (A) (A) (A) (A) (A) (A) (A) (A) (A) (A) (A)
                 (A) (A) (A) (A) (A) (A) (A) (A) (A) (A) (A) (A)
                 (A) (A) (A) (A) (A) (A) (A) (A) (A) (A) (A) (A)
                 (A) (A) (A) (A) (A) (A) (A) (A) (A) (A) (A) (A)
                 (A) (A) (A) (A) (A) (A) (A) (A) (A) (A) (A) (A)
                 (A) (A) (A) (A) (A) (A) (A) (A) (A) (A) (A) (A)
                 (A) (A) (A) (A) (A) (A) (A) (A) (A) (A) (A) (A)
                 (A) (A) (A) (A) (A) (A) (A) (A) (A) (A) (A) (A)
                 (A) (A) (A) (A) (A) (A) (A) (A) (A) (A) (A) (A)
                 (A) (A) (A) (A)
       Virtual   (A) (A) (A) (A) (A) (A) (A) (A) (A) (A) (A) (A)
                 (A) (A) (A) (A) (A) (A) (A) (A) (A) (A) (A) (A)
                 (A) (A) (A) (A) (A) (A) (A) (A) (A) (A) (A) (A)
                 (A) (A) (A) (A) (A) (A) (A) (A) (A) (A) (A) (A)
                 (A) (A) (A) (A) (A) (A) (A) (A) (A) (A) (A) (A)
                 (A) (A) (A) (A) (A) (A) (A) (A) (A) (A) (A) (A)
                 (A) (A) (A) (A) (A) (A) (A) (A) (A) (A) (A) (A)
                 (A) (A) (A) (A) (A) (A) (A) (A) (A) (A) (A) (A)
                 (A) (A) (A) (A) (A) (A) (A) (A) (A) (A) (A) (A)
                 (A) (A) (A) (A) (A) (A) (A) (A) (A) (A) (A) (A)
                 (A) (A) (A) (A) (A) (A) (A) (A) (A) (A) (A) (A)
                 (A) (A) (A) (A) (A) (A) (A) (A) (A) (A) (A) (A)
                 (A) (A) (A) (A) (A) (A) (A) (A) (A) (A) (A) (A)
                 (A) (A) (A) (A) (A) (A) (A) (A) (A) (A) (A) (A)
                 (A) (A) (A) (A) (A) (A) (A) (A) (A) (A) (A) (A)
                 (A) (A) (A) (A) (A) (A) (A) (A) (A) (A) (A) (A)
                 (A) (A) (A) (A) (A) (A) (A) (A) (A) (A) (A) (A)
                 (A) (A) (A) (A) (A) (A) (A) (A) (A) (A) (A) (A)
                 (A) (A) (A) (A) (A) (A) (A) (A) (A) (A) (A) (A)
                 (A) (A) (A) (A) (A) (A) (A) (A) (A) (A) (A) (A)
                 (A) (A) (A) (A) (A) (A) (A) (A) (A) (A) (A) (A)
                 (A) (A) (A) (A) (A) (A) (A) (A) (A) (A) (A) (A)
                 (A) (A) (A) (A) (A) (A) (A) (A) (A) (A) (A) (A)
                 (A) (A) (A) (A) (A) (A) (A) (A) (A) (A) (A) (A)
                 (A) (A) (A) (A) (A) (A) (A) (A) (A) (A) (A) (A)
                 (A) (A) (A) (A) (A) (A) (A) (A) (A) (A) (A) (A)
                 (A) (A) (A) (A) (A) (A) (A) (A) (A) (A) (A) (A)
                 (A) (A) (A) (A) (A) (A) (A) (A) (A) (A) (A) (A)
                 (A) (A) (A) (A) (A) (A) (A) (A) (A) (A) (A) (A)
                 (A) (A) (A) (A) (A) (A) (A) (A) (A) (A) (A) (A)
                 (A) (A) (A) (A) (A) (A) (A) (A) (A) (A) (A) (A)
                 (A) (A) (A) (A) (A) (A) (A) (A) (A) (A) (A) (A)
                 (A) (A) (A) (A) (A) (A) (A) (A) (A) (A) (A) (A)
                 (A) (A) (A) (A) (A) (A) (A) (A) (A) (A) (A) (A)
                 (A) (A) (A) (A) (A) (A) (A) (A) (A) (A) (A) (A)
                 (A) (A) (A) (A) (A) (A) (A) (A) (A) (A) (A) (A)
                 (A) (A) (A) (A) (A) (A) (A) (A) (A) (A) (A) (A)
                 (A) (A) (A) (A) (A) (A) (A) (A) (A) (A) (A) (A)
                 (A) (A) (A) (A) (A) (A) (A) (A) (A) (A) (A) (A)
                 (A) (A) (A) (A) (A) (A) (A) (A) (A) (A) (A) (A)
                 (A) (A) (A) (A) (A) (A) (A) (A) (A) (A) (A) (A)
                 (A) (A) (A) (A) (A) (A) (A) (A) (A) (A) (A) (A)
                 (A) (A) (A) (A) (A) (A) (A) (A) (A) (A) (A) (A)
                 (A) (A) (A) (A) (A) (A) (A) (A) (A) (A) (A) (A)
                 (A) (A) (A) (A) (A) (A) (A) (A) (A) (A) (A) (A)
                 (A) (A) (A) (A) (A) (A) (A) (A) (A) (A) (A) (A)
                 (A) (A) (A) (A) (A) (A) (A) (A) (A) (A) (A) (A)
                 (A) (A) (A) (A) (A) (A) (A) (A) (A) (A) (A) (A)
                 (A) (A) (A) (A) (A) (A) (A) (A) (A) (A) (A) (A)
                 (A) (A) (A) (A) (A) (A) (A) (A) (A) (A) (A) (A)
                 (A) (A) (A) (A) (A) (A) (A) (A) (A) (A) (A) (A)
                 (A) (A) (A) (A) (A) (A) (A) (A) (A) (A) (A) (A)
                 (A) (A) (A) (A) (A) (A) (A) (A) (A) (A) (A) (A)
                 (A) (A) (A) (A) (A) (A) (A) (A) (A) (A) (A) (A)
                 (A) (A) (A) (A) (A) (A) (A) (A) (A) (A) (A) (A)
                 (A) (A) (A) (A) (A) (A) (A) (A) (A) (A) (A) (A)
                 (A) (A) (A) (A) (A) (A) (A) (A) (A) (A) (A) (A)
                 (A) (A) (A) (A) (A) (A) (A) (A) (A) (A) (A) (A)
                 (A) (A) (A) (A) (A) (A) (A) (A) (A) (A) (A) (A)
                 (A) (A) (A) (A) (A) (A) (A) (A) (A) (A) (A) (A)
                 (A) (A) (A) (A) (A) (A) (A) (A) (A) (A) (A) (A)
                 (A) (A) (A) (A) (A) (A) (A) (A) (A) (A) (A) (A)
                 (A) (A) (A) (A) (A) (A) (A) (A) (A) (A) (A) (A)
                 (A) (A) (A) (A) (A) (A) (A) (A) (A) (A) (A) (A)
                 (A) (A) (A) (A) (A) (A) (A) (A) (A) (A) (A) (A)
                 (A) (A) (A) (A) (A) (A) (A) (A) (A) (A) (A) (A)
                 (A) (A) (A) (A) (A) (A) (A) (A) (A) (A) (A) (A)
                 (A) (A) (A) (A) (A) (A) (A) (A) (A) (A) (A) (A)
                 (A) (A) (A) (A) (A) (A) (A) (A) (A) (A) (A) (A)
                 (A) (A) (A) (A) (A) (A) (A) (A) (A) (A) (A) (A)
                 (A) (A) (A) (A) (A) (A) (A) (A) (A) (A) (A) (A)
                 (A) (A) (A) (A) (A) (A) (A) (A) (A) (A) (A) (A)
                 (A) (A) (A) (A) (A) (A) (A) (A) (A) (A) (A) (A)
                 (A) (A) (A) (A) (A) (A) (A) (A) (A) (A) (A) (A)
                 (A) (A) (A) (A) (A) (A) (A) (A) (A) (A) (A) (A)
                 (A) (A) (A) (A) (A) (A) (A) (A) (A) (A) (A) (A)
                 (A) (A) (A) (A) (A) (A) (A) (A) (A) (A) (A) (A)
                 (A) (A) (A) (A) (A) (A) (A) (A) (A) (A) (A) (A)
                 (A) (A) (A) (A) (A) (A) (A) (A) (A) (A) (A) (A)
                 (A) (A) (A) (A) (A) (A) (A) (A) (A) (A) (A) (A)
                 (A) (A) (A) (A) (A) (A) (A) (A) (A) (A) (A) (A)
                 (A) (A) (A) (A) (A) (A) (A) (A) (A) (A) (A) (A)
                 (A) (A) (A) (A) (A) (A) (A) (A) (A) (A) (A) (A)
                 (A) (A) (A) (A) (A) (A) (A) (A) (A) (A)
 The electronic state is 1-A.
 Alpha  occ. eigenvalues --  -89.07812 -89.07368 -89.06236 -89.06103 -19.30267
 Alpha  occ. eigenvalues --  -19.29529 -19.28364 -19.28221 -19.24040 -19.23169
 Alpha  occ. eigenvalues --  -14.46841 -14.42873 -10.43165 -10.42863 -10.37629
 Alpha  occ. eigenvalues --  -10.35920 -10.35778 -10.35762 -10.35637 -10.35620
 Alpha  occ. eigenvalues --  -10.35410 -10.35116 -10.34715 -10.34601 -10.34453
 Alpha  occ. eigenvalues --  -10.34428 -10.34412 -10.34343 -10.34226 -10.33743
 Alpha  occ. eigenvalues --  -10.33642 -10.33280 -10.33186 -10.33150 -10.32406
 Alpha  occ. eigenvalues --  -10.32315 -10.32133 -10.31306 -10.31056 -10.31029
 Alpha  occ. eigenvalues --  -10.30459 -10.30149 -10.30103 -10.29992 -10.29829
 Alpha  occ. eigenvalues --  -10.29824 -10.29793 -10.29786 -10.29626 -10.29505
 Alpha  occ. eigenvalues --  -10.29469 -10.29357 -10.29337 -10.29299 -10.29253
 Alpha  occ. eigenvalues --   -8.11842  -8.11361  -8.10209  -8.10108  -6.06700
 Alpha  occ. eigenvalues --   -6.06301  -6.06209  -6.05918  -6.05837  -6.05436
 Alpha  occ. eigenvalues --   -6.05089  -6.04956  -6.04690  -6.04582  -6.04224
 Alpha  occ. eigenvalues --   -6.04186  -1.22195  -1.21136  -1.17844  -1.17704
 Alpha  occ. eigenvalues --   -1.13222  -1.12991  -1.07676  -1.04501  -1.03530
 Alpha  occ. eigenvalues --   -1.00976  -1.00013  -0.97950  -0.97299  -0.96981
 Alpha  occ. eigenvalues --   -0.95687  -0.94863  -0.93847  -0.90408  -0.89017
 Alpha  occ. eigenvalues --   -0.87607  -0.87526  -0.87071  -0.86269  -0.86200
 Alpha  occ. eigenvalues --   -0.85919  -0.85578  -0.84678  -0.84372  -0.83805
 Alpha  occ. eigenvalues --   -0.82804  -0.81008  -0.80865  -0.80541  -0.79135
 Alpha  occ. eigenvalues --   -0.76749  -0.74710  -0.73480  -0.73311  -0.72597
 Alpha  occ. eigenvalues --   -0.72537  -0.71958  -0.71649  -0.70405  -0.69886
 Alpha  occ. eigenvalues --   -0.68246  -0.67518  -0.66461  -0.66230  -0.65511
 Alpha  occ. eigenvalues --   -0.65158  -0.64611  -0.64317  -0.64123  -0.63197
 Alpha  occ. eigenvalues --   -0.62417  -0.61379  -0.60799  -0.59537  -0.59153
 Alpha  occ. eigenvalues --   -0.58639  -0.58563  -0.58112  -0.57787  -0.56989
 Alpha  occ. eigenvalues --   -0.56857  -0.56701  -0.56445  -0.55956  -0.55383
 Alpha  occ. eigenvalues --   -0.54957  -0.54726  -0.54634  -0.54463  -0.54203
 Alpha  occ. eigenvalues --   -0.53730  -0.53302  -0.53286  -0.52566  -0.52398
 Alpha  occ. eigenvalues --   -0.52213  -0.52030  -0.51950  -0.51653  -0.51209
 Alpha  occ. eigenvalues --   -0.51094  -0.50537  -0.50435  -0.50057  -0.49848
 Alpha  occ. eigenvalues --   -0.49619  -0.49134  -0.48952  -0.48501  -0.48293
 Alpha  occ. eigenvalues --   -0.48056  -0.47944  -0.47804  -0.47421  -0.47139
 Alpha  occ. eigenvalues --   -0.46791  -0.46292  -0.46003  -0.45859  -0.45652
 Alpha  occ. eigenvalues --   -0.45293  -0.45024  -0.44951  -0.44789  -0.44295
 Alpha  occ. eigenvalues --   -0.43788  -0.43318  -0.42945  -0.42820  -0.42227
 Alpha  occ. eigenvalues --   -0.42138  -0.42044  -0.41905  -0.41825  -0.41350
 Alpha  occ. eigenvalues --   -0.41033  -0.40026  -0.39586  -0.37719  -0.37159
 Alpha  occ. eigenvalues --   -0.36817  -0.35757  -0.35375  -0.34994  -0.34336
 Alpha  occ. eigenvalues --   -0.34276  -0.34071  -0.33992  -0.33082  -0.31428
 Alpha  occ. eigenvalues --   -0.30245  -0.26835  -0.24555
 Alpha virt. eigenvalues --   -0.06290  -0.01661   0.00162   0.03318   0.03769
 Alpha virt. eigenvalues --    0.04651   0.05176   0.05543   0.05642   0.05824
 Alpha virt. eigenvalues --    0.06468   0.07766   0.07884   0.08927   0.09506
 Alpha virt. eigenvalues --    0.09716   0.09850   0.10537   0.10785   0.11101
 Alpha virt. eigenvalues --    0.11200   0.11807   0.12128   0.12285   0.12672
 Alpha virt. eigenvalues --    0.13196   0.13355   0.13672   0.14216   0.14488
 Alpha virt. eigenvalues --    0.14669   0.14863   0.15061   0.15361   0.15635
 Alpha virt. eigenvalues --    0.15767   0.16251   0.16316   0.16707   0.17385
 Alpha virt. eigenvalues --    0.17570   0.17945   0.18066   0.18215   0.18367
 Alpha virt. eigenvalues --    0.18416   0.18550   0.18591   0.19067   0.19110
 Alpha virt. eigenvalues --    0.19453   0.19765   0.19844   0.20096   0.20464
 Alpha virt. eigenvalues --    0.20775   0.20918   0.21493   0.21566   0.21763
 Alpha virt. eigenvalues --    0.22003   0.22205   0.22353   0.22452   0.22630
 Alpha virt. eigenvalues --    0.23168   0.23486   0.23867   0.24303   0.24679
 Alpha virt. eigenvalues --    0.24906   0.25313   0.26310   0.26498   0.26886
 Alpha virt. eigenvalues --    0.27666   0.27999   0.28479   0.28517   0.28671
 Alpha virt. eigenvalues --    0.29168   0.29511   0.30363   0.30520   0.30685
 Alpha virt. eigenvalues --    0.30877   0.31441   0.31576   0.31734   0.32682
 Alpha virt. eigenvalues --    0.33022   0.33129   0.33459   0.34152   0.35017
 Alpha virt. eigenvalues --    0.35196   0.35754   0.36175   0.36343   0.36682
 Alpha virt. eigenvalues --    0.37127   0.37504   0.37932   0.38342   0.38465
 Alpha virt. eigenvalues --    0.38506   0.38570   0.38747   0.38888   0.39048
 Alpha virt. eigenvalues --    0.39142   0.39656   0.40032   0.40157   0.40825
 Alpha virt. eigenvalues --    0.41149   0.41457   0.41846   0.42171   0.42786
 Alpha virt. eigenvalues --    0.43179   0.43661   0.43760   0.43852   0.44248
 Alpha virt. eigenvalues --    0.44300   0.44642   0.44930   0.45019   0.45264
 Alpha virt. eigenvalues --    0.45411   0.45564   0.45691   0.46151   0.46244
 Alpha virt. eigenvalues --    0.46341   0.46751   0.46987   0.47548   0.47706
 Alpha virt. eigenvalues --    0.48088   0.48250   0.48304   0.48823   0.48921
 Alpha virt. eigenvalues --    0.49105   0.49189   0.49357   0.49705   0.49824
 Alpha virt. eigenvalues --    0.50233   0.50426   0.50548   0.50753   0.50954
 Alpha virt. eigenvalues --    0.51215   0.51380   0.51698   0.51859   0.52004
 Alpha virt. eigenvalues --    0.52235   0.52481   0.52666   0.52808   0.53370
 Alpha virt. eigenvalues --    0.53767   0.53992   0.54322   0.54687   0.54945
 Alpha virt. eigenvalues --    0.55001   0.55468   0.55647   0.55781   0.56057
 Alpha virt. eigenvalues --    0.56304   0.56539   0.56793   0.57168   0.57377
 Alpha virt. eigenvalues --    0.57704   0.58051   0.58277   0.58683   0.58898
 Alpha virt. eigenvalues --    0.58949   0.59188   0.59594   0.59859   0.60334
 Alpha virt. eigenvalues --    0.60563   0.60980   0.61291   0.61429   0.61692
 Alpha virt. eigenvalues --    0.61904   0.62208   0.62345   0.62540   0.63157
 Alpha virt. eigenvalues --    0.63228   0.63685   0.63871   0.64227   0.64370
 Alpha virt. eigenvalues --    0.64451   0.64809   0.64862   0.65406   0.65672
 Alpha virt. eigenvalues --    0.65831   0.66040   0.66235   0.66560   0.66806
 Alpha virt. eigenvalues --    0.66934   0.67089   0.67266   0.67485   0.67695
 Alpha virt. eigenvalues --    0.67999   0.68265   0.68419   0.68706   0.68806
 Alpha virt. eigenvalues --    0.68974   0.69133   0.69261   0.69406   0.69694
 Alpha virt. eigenvalues --    0.69926   0.70086   0.70259   0.70452   0.70681
 Alpha virt. eigenvalues --    0.71006   0.71080   0.71403   0.71568   0.72018
 Alpha virt. eigenvalues --    0.72140   0.72338   0.72567   0.72725   0.73279
 Alpha virt. eigenvalues --    0.73402   0.73958   0.74241   0.74753   0.74839
 Alpha virt. eigenvalues --    0.75113   0.75792   0.75930   0.76073   0.76207
 Alpha virt. eigenvalues --    0.76635   0.77089   0.77796   0.77928   0.78355
 Alpha virt. eigenvalues --    0.78728   0.78819   0.79131   0.79307   0.79617
 Alpha virt. eigenvalues --    0.79844   0.80672   0.81438   0.82186   0.82211
 Alpha virt. eigenvalues --    0.82337   0.82510   0.82536   0.83477   0.83928
 Alpha virt. eigenvalues --    0.84323   0.84857   0.85251   0.85633   0.85737
 Alpha virt. eigenvalues --    0.86155   0.86398   0.86680   0.86797   0.87094
 Alpha virt. eigenvalues --    0.87432   0.87593   0.88182   0.88283   0.88557
 Alpha virt. eigenvalues --    0.88694   0.89076   0.89414   0.89823   0.90156
 Alpha virt. eigenvalues --    0.90447   0.90750   0.90905   0.91450   0.91670
 Alpha virt. eigenvalues --    0.92213   0.92487   0.92610   0.93013   0.93297
 Alpha virt. eigenvalues --    0.93375   0.93677   0.94422   0.94762   0.95109
 Alpha virt. eigenvalues --    0.95136   0.95297   0.95464   0.96173   0.96309
 Alpha virt. eigenvalues --    0.96538   0.96859   0.97079   0.97285   0.97613
 Alpha virt. eigenvalues --    0.97973   0.98175   0.98426   0.98955   0.99049
 Alpha virt. eigenvalues --    0.99207   0.99382   0.99791   1.00189   1.00842
 Alpha virt. eigenvalues --    1.01599   1.01768   1.02677   1.02842   1.02987
 Alpha virt. eigenvalues --    1.03260   1.03344   1.04113   1.04424   1.04817
 Alpha virt. eigenvalues --    1.05469   1.05862   1.06240   1.06365   1.06496
 Alpha virt. eigenvalues --    1.07020   1.07313   1.07612   1.08148   1.08397
 Alpha virt. eigenvalues --    1.08796   1.09207   1.09252   1.10349   1.10515
 Alpha virt. eigenvalues --    1.11024   1.11345   1.11569   1.12007   1.12421
 Alpha virt. eigenvalues --    1.13172   1.13580   1.14074   1.14189   1.15017
 Alpha virt. eigenvalues --    1.15065   1.15513   1.15628   1.15755   1.16535
 Alpha virt. eigenvalues --    1.17220   1.17418   1.17512   1.17768   1.17989
 Alpha virt. eigenvalues --    1.18521   1.18791   1.19587   1.20011   1.20475
 Alpha virt. eigenvalues --    1.20716   1.21221   1.21379   1.21889   1.22075
 Alpha virt. eigenvalues --    1.22535   1.22983   1.24072   1.24728   1.25323
 Alpha virt. eigenvalues --    1.25892   1.26744   1.27255   1.27555   1.28679
 Alpha virt. eigenvalues --    1.29455   1.30138   1.30453   1.30509   1.31851
 Alpha virt. eigenvalues --    1.32395   1.32482   1.32555   1.32725   1.32854
 Alpha virt. eigenvalues --    1.33729   1.34843   1.35405   1.36798   1.37039
 Alpha virt. eigenvalues --    1.37745   1.38348   1.39800   1.40883   1.41495
 Alpha virt. eigenvalues --    1.41995   1.43114   1.43364   1.43711   1.43813
 Alpha virt. eigenvalues --    1.44211   1.44352   1.44748   1.44986   1.45844
 Alpha virt. eigenvalues --    1.46117   1.47664   1.47707   1.47850   1.48154
 Alpha virt. eigenvalues --    1.48622   1.50284   1.50421   1.50793   1.50971
 Alpha virt. eigenvalues --    1.51105   1.51192   1.51195   1.51392   1.51886
 Alpha virt. eigenvalues --    1.52035   1.52767   1.53549   1.54007   1.54148
 Alpha virt. eigenvalues --    1.54325   1.54367   1.54603   1.54767   1.55378
 Alpha virt. eigenvalues --    1.55760   1.55913   1.56230   1.56471   1.56886
 Alpha virt. eigenvalues --    1.56979   1.57424   1.57560   1.58618   1.59099
 Alpha virt. eigenvalues --    1.59673   1.60265   1.60551   1.60862   1.61624
 Alpha virt. eigenvalues --    1.62098   1.62381   1.62572   1.62968   1.63110
 Alpha virt. eigenvalues --    1.63929   1.64067   1.64438   1.64544   1.64699
 Alpha virt. eigenvalues --    1.65201   1.65468   1.65771   1.65889   1.66123
 Alpha virt. eigenvalues --    1.66221   1.66456   1.66732   1.67032   1.67229
 Alpha virt. eigenvalues --    1.67403   1.67550   1.67823   1.68048   1.68184
 Alpha virt. eigenvalues --    1.68635   1.68934   1.69100   1.69501   1.69725
 Alpha virt. eigenvalues --    1.70321   1.71485   1.71521   1.71992   1.72629
 Alpha virt. eigenvalues --    1.72966   1.73185   1.73470   1.73533   1.74094
 Alpha virt. eigenvalues --    1.74344   1.74513   1.74588   1.74697   1.75073
 Alpha virt. eigenvalues --    1.75379   1.75559   1.75856   1.76668   1.76903
 Alpha virt. eigenvalues --    1.77120   1.77240   1.77836   1.78084   1.78816
 Alpha virt. eigenvalues --    1.79492   1.80046   1.80620   1.80888   1.81109
 Alpha virt. eigenvalues --    1.81382   1.81690   1.81992   1.82330   1.82653
 Alpha virt. eigenvalues --    1.82769   1.83368   1.83606   1.84759   1.85075
 Alpha virt. eigenvalues --    1.85317   1.85595   1.85663   1.85941   1.86357
 Alpha virt. eigenvalues --    1.86646   1.86772   1.87430   1.88622   1.89831
 Alpha virt. eigenvalues --    1.90746   1.91144   1.92044   1.92447   1.92709
 Alpha virt. eigenvalues --    1.93012   1.93244   1.93612   1.94400   1.95108
 Alpha virt. eigenvalues --    1.95512   1.95551   1.96030   1.96888   1.97350
 Alpha virt. eigenvalues --    1.97636   1.98098   1.98196   1.98372   1.98596
 Alpha virt. eigenvalues --    1.98802   1.99335   1.99438   1.99771   1.99952
 Alpha virt. eigenvalues --    2.00341   2.00661   2.01364   2.01674   2.02161
 Alpha virt. eigenvalues --    2.02504   2.02892   2.03811   2.04052   2.04180
 Alpha virt. eigenvalues --    2.04837   2.05224   2.05390   2.06045   2.06350
 Alpha virt. eigenvalues --    2.07361   2.07692   2.08342   2.08747   2.08881
 Alpha virt. eigenvalues --    2.09016   2.09283   2.09444   2.09850   2.10095
 Alpha virt. eigenvalues --    2.10572   2.10858   2.11811   2.11942   2.12718
 Alpha virt. eigenvalues --    2.13396   2.13874   2.14029   2.14110   2.14405
 Alpha virt. eigenvalues --    2.15077   2.15198   2.15279   2.15483   2.15758
 Alpha virt. eigenvalues --    2.16433   2.16657   2.17200   2.17643   2.17833
 Alpha virt. eigenvalues --    2.18323   2.18723   2.19216   2.19340   2.19762
 Alpha virt. eigenvalues --    2.20105   2.20234   2.20621   2.21219   2.21536
 Alpha virt. eigenvalues --    2.21931   2.23502   2.24660   2.24978   2.26007
 Alpha virt. eigenvalues --    2.26608   2.26810   2.28084   2.28817   2.30092
 Alpha virt. eigenvalues --    2.31050   2.31464   2.31779   2.33154   2.33764
 Alpha virt. eigenvalues --    2.35074   2.35314   2.36132   2.36635   2.36894
 Alpha virt. eigenvalues --    2.37820   2.39002   2.39389   2.39612   2.40837
 Alpha virt. eigenvalues --    2.41331   2.41497   2.41822   2.42023   2.42387
 Alpha virt. eigenvalues --    2.42485   2.43685   2.43826   2.44608   2.45576
 Alpha virt. eigenvalues --    2.46166   2.46764   2.47201   2.47959   2.48055
 Alpha virt. eigenvalues --    2.48773   2.48987   2.49282   2.49379   2.50902
 Alpha virt. eigenvalues --    2.51448   2.52355   2.53433   2.53632   2.53756
 Alpha virt. eigenvalues --    2.53975   2.54823   2.55085   2.57184   2.57644
 Alpha virt. eigenvalues --    2.57973   2.58170   2.58510   2.59393   2.59881
 Alpha virt. eigenvalues --    2.60057   2.60099   2.60739   2.61139   2.61782
 Alpha virt. eigenvalues --    2.62251   2.62482   2.62893   2.63392   2.64317
 Alpha virt. eigenvalues --    2.64944   2.65619   2.67070   2.67300   2.67698
 Alpha virt. eigenvalues --    2.67889   2.68082   2.68573   2.68831   2.68875
 Alpha virt. eigenvalues --    2.69396   2.69736   2.70073   2.70310   2.70816
 Alpha virt. eigenvalues --    2.71069   2.71104   2.71202   2.71686   2.72246
 Alpha virt. eigenvalues --    2.72962   2.73986   2.74419   2.74670   2.75141
 Alpha virt. eigenvalues --    2.75352   2.75715   2.75892   2.76060   2.76978
 Alpha virt. eigenvalues --    2.77185   2.77441   2.77650   2.77735   2.78452
 Alpha virt. eigenvalues --    2.78938   2.79392   2.79961   2.80701   2.81034
 Alpha virt. eigenvalues --    2.81591   2.82176   2.83366   2.83944   2.84402
 Alpha virt. eigenvalues --    2.85011   2.85860   2.86756   2.87397   2.87971
 Alpha virt. eigenvalues --    2.88920   2.89347   2.89977   2.90602   2.91225
 Alpha virt. eigenvalues --    2.91710   2.92160   2.93400   2.93537   2.93614
 Alpha virt. eigenvalues --    2.94144   2.94356   2.94633   2.94782   2.95029
 Alpha virt. eigenvalues --    2.95709   2.96127   2.96663   2.97741   2.98283
 Alpha virt. eigenvalues --    2.98790   2.99472   2.99789   3.00629   3.01396
 Alpha virt. eigenvalues --    3.01564   3.01838   3.02255   3.02435   3.02949
 Alpha virt. eigenvalues --    3.03630   3.04169   3.04585   3.05248   3.05691
 Alpha virt. eigenvalues --    3.06084   3.07491   3.08168   3.09373   3.09537
 Alpha virt. eigenvalues --    3.09913   3.10073   3.10336   3.11082   3.11330
 Alpha virt. eigenvalues --    3.12140   3.12481   3.12506   3.12695   3.13002
 Alpha virt. eigenvalues --    3.14452   3.16114   3.16632   3.17187   3.17326
 Alpha virt. eigenvalues --    3.17955   3.19513   3.20216   3.20501   3.21575
 Alpha virt. eigenvalues --    3.22674   3.24068   3.24905   3.25778   3.25970
 Alpha virt. eigenvalues --    3.27243   3.27575   3.27688   3.28245   3.28497
 Alpha virt. eigenvalues --    3.29336   3.30161   3.31122   3.32367   3.32529
 Alpha virt. eigenvalues --    3.32768   3.34333   3.35739   3.36302   3.36961
 Alpha virt. eigenvalues --    3.39459   3.40757   3.41640   3.42210   3.43233
 Alpha virt. eigenvalues --    3.44116   3.44140   3.44784   3.45709   3.45812
 Alpha virt. eigenvalues --    3.46306   3.47409   3.47893   3.50350   3.50663
 Alpha virt. eigenvalues --    3.51334   3.52815   3.55446   3.56042   3.56939
 Alpha virt. eigenvalues --    3.58044   3.58129   3.59227   3.60047   3.60267
 Alpha virt. eigenvalues --    3.62562   3.62809   3.64922   3.65687   3.67000
 Alpha virt. eigenvalues --    3.67273   3.68256   3.69917   3.70032   3.70642
 Alpha virt. eigenvalues --    3.71499   3.77952   3.78764   3.84006   3.84195
 Alpha virt. eigenvalues --    3.84326   3.84600   3.85136   3.86693   3.87172
 Alpha virt. eigenvalues --    3.87240   3.87479   3.87797   3.88522   3.91053
 Alpha virt. eigenvalues --    3.91208   3.94044   3.95996   3.96552   3.99169
 Alpha virt. eigenvalues --    4.00353   4.03373   4.05268   4.05494   4.05819
 Alpha virt. eigenvalues --    4.06685   4.08230   4.11686   4.12977   4.13500
 Alpha virt. eigenvalues --    4.15006   4.15274   4.19691   4.20076   4.20346
 Alpha virt. eigenvalues --    4.21421   4.22035   4.22897   4.25420   4.25711
 Alpha virt. eigenvalues --    4.26765   4.27667   4.29223   4.33416   4.35591
 Alpha virt. eigenvalues --    4.39317   4.42765   4.58603   4.63189   4.64422
 Alpha virt. eigenvalues --    4.67004   4.77160   4.93096   4.93730   4.93866
 Alpha virt. eigenvalues --    4.94662   4.95185   5.00126   5.00305   5.02582
 Alpha virt. eigenvalues --    5.03118   5.11485   5.14350   5.16249   5.23345
 Alpha virt. eigenvalues --    5.32897   5.37430   5.38123   5.38300   5.64282
 Alpha virt. eigenvalues --    5.72301   5.86808   5.87250   5.87404   5.88095
 Alpha virt. eigenvalues --    7.86750   7.88653   7.90960   7.93280  17.30510
 Alpha virt. eigenvalues --   17.31914  17.33771  17.34580  17.54081  17.57257
 Alpha virt. eigenvalues --   17.58097  17.61674  17.63643  17.63751  17.67295
 Alpha virt. eigenvalues --   17.68922  23.46882  23.56267  23.60552  23.64996
 Alpha virt. eigenvalues --   23.67926  23.72123  23.77892  23.83410  23.86746
 Alpha virt. eigenvalues --   23.91001  23.92225  23.93206  23.95024  23.98421
 Alpha virt. eigenvalues --   23.98603  23.99200  23.99861  24.01986  24.02657
 Alpha virt. eigenvalues --   24.03882  24.04373  24.04512  24.05743  24.05886
 Alpha virt. eigenvalues --   24.10172  24.12405  24.13838  24.14248  24.15135
 Alpha virt. eigenvalues --   24.16290  24.16914  24.17028  24.23321  24.23401
 Alpha virt. eigenvalues --   24.23729  24.23996  24.24720  24.25316  24.26237
 Alpha virt. eigenvalues --   24.30211  24.30362  24.30625  24.56899  35.77747
 Alpha virt. eigenvalues --   35.96663  49.97402  49.99908  50.04824  50.04975
 Alpha virt. eigenvalues --   50.13407  50.14764 189.06732 189.08538 189.10519
 Alpha virt. eigenvalues --  189.12643
          Condensed to atoms (all electrons):
 Mulliken charges:
               1
     1  C   -0.317008
     2  C    0.024007
     3  C   -0.188267
     4  C   -0.201654
     5  S    0.316476
     6  C   -0.272212
     7  C    0.005834
     8  C   -0.110671
     9  C   -0.132046
    10  C    0.196051
    11  N   -0.515487
    12  C    0.062629
    13  C   -0.081017
    14  H    0.120905
    15  C   -0.152671
    16  C    0.179940
    17  C   -0.103592
    18  C   -0.079050
    19  H    0.126698
    20  H    0.124903
    21  O   -0.353745
    22  C   -0.160347
    23  H    0.120137
    24  H    0.120008
    25  H    0.142242
    26  H    0.125813
    27  C    0.061545
    28  C   -0.081110
    29  C   -0.151781
    30  C    0.179884
    31  C   -0.105823
    32  C   -0.078606
    33  H    0.123007
    34  H    0.123890
    35  O   -0.353988
    36  C   -0.159511
    37  H    0.119742
    38  H    0.118943
    39  H    0.142197
    40  H    0.125736
    41  H    0.124366
    42  C   -0.126501
    43  C   -0.072873
    44  H    0.108174
    45  H    0.133282
    46  H    0.135098
    47  H    0.121412
    48  C   -0.013141
    49  C    0.038269
    50  H    0.112832
    51  S    0.361877
    52  C   -0.247261
    53  C   -0.022192
    54  H    0.124331
    55  C   -0.179315
    56  S    0.348536
    57  C   -0.350461
    58  C   -0.065060
    59  C   -0.002184
    60  C    0.036204
    61  C   -0.384790
    62  S    0.395398
    63  C    0.470315
    64  O   -0.348128
    65  O   -0.337928
    66  C   -0.138595
    67  H    0.135296
    68  H    0.137651
    69  H    0.140128
    70  H    0.155807
    71  C    0.005887
    72  C   -0.189567
    73  C    0.065371
    74  N   -0.224192
    75  C    0.445252
    76  O   -0.314042
    77  H    0.251782
    78  O   -0.297727
    79  H    0.124012
    80  C   -0.242798
    81  H    0.137103
    82  H    0.121119
    83  H    0.123902
    84  C   -0.241374
    85  H    0.138140
    86  H    0.123212
    87  H    0.121374
 Sum of Mulliken charges =  -0.00000
 Mulliken charges with hydrogens summed into heavy atoms:
               1
     1  C   -0.317008
     2  C    0.024007
     3  C   -0.188267
     4  C   -0.201654
     5  S    0.316476
     6  C   -0.272212
     7  C    0.005834
     8  C    0.010741
     9  C    0.003051
    10  C    0.196051
    11  N   -0.515487
    12  C    0.062629
    13  C    0.039888
    15  C   -0.026858
    16  C    0.179940
    17  C    0.021310
    18  C    0.047648
    21  O   -0.353745
    22  C    0.222040
    27  C    0.061545
    28  C    0.043256
    29  C   -0.026045
    30  C    0.179884
    31  C    0.018067
    32  C    0.044401
    35  O   -0.353988
    36  C    0.221372
    42  C    0.006781
    43  C    0.035301
    48  C    0.099691
    49  C    0.038269
    51  S    0.361877
    52  C   -0.247261
    53  C    0.102138
    55  C   -0.179315
    56  S    0.348536
    57  C   -0.350461
    58  C   -0.065060
    59  C   -0.002184
    60  C    0.192011
    61  C   -0.384790
    62  S    0.395398
    63  C    0.470315
    64  O   -0.348128
    65  O   -0.337928
    66  C    0.274479
    71  C    0.129899
    72  C   -0.189567
    73  C    0.065371
    74  N   -0.224192
    75  C    0.445252
    76  O   -0.062261
    78  O   -0.297727
    80  C    0.139326
    84  C    0.141352
 Electronic spatial extent (au):  <R**2>=         100518.5295
 Charge=             -0.0000 electrons
 Dipole moment (field-independent basis, Debye):
    X=             14.6391    Y=             -3.1533    Z=              5.9944  Tot=             16.1300
 Quadrupole moment (field-independent basis, Debye-Ang):
   XX=           -441.2341   YY=           -298.0794   ZZ=           -347.4102
   XY=             -0.5624   XZ=            -25.8659   YZ=             -2.5384
 Traceless Quadrupole moment (field-independent basis, Debye-Ang):
   XX=            -78.9929   YY=             64.1618   ZZ=             14.8311
   XY=             -0.5624   XZ=            -25.8659   YZ=             -2.5384
 Octapole moment (field-independent basis, Debye-Ang**2):
  XXX=           2968.1541  YYY=            104.6098  ZZZ=             27.8710  XYY=            144.4217
  XXY=            255.2851  XXZ=            806.7809  XZZ=             80.8298  YZZ=             -0.9786
  YYZ=            102.5741  XYZ=            -57.3468
 Hexadecapole moment (field-independent basis, Debye-Ang**3):
 XXXX=        -144182.7122 YYYY=         -12994.4302 ZZZZ=          -1729.3657 XXXY=          -1808.5167
 XXXZ=          -4217.3236 YYYX=           -842.9333 YYYZ=            100.6332 ZZZX=           -145.5595
 ZZZY=             12.0898 XXYY=         -18388.4825 XXZZ=         -20286.0099 YYZZ=          -2667.8202
 XXYZ=           -314.8824 YYXZ=            171.8936 ZZXY=           -253.9755
 N-N= 7.134566097159D+03 E-N=-2.322347324744D+04  KE= 3.800279361698D+03
 1\1\GINC-CN112\SP\RwB97XD TD-FC\6-311G(d,p)\C43H32N2O6S4\R2532\16-Jun-
 2021\0\\#N TD(NStates=10) wB97XD/6-311G(d,p)\\Name\\0,1\C,0,0.937367,-
 3.073447,-0.186672\C,0,2.122867,-2.115248,-0.081661\C,0,1.679316,-0.80
 4099,0.068452\C,0,0.249325,-0.787165,0.077728\S,0,-1.03641,0.361025,0.
 215518\C,0,-2.23886,-0.926149,0.055578\C,0,-3.663445,-0.618716,0.08808
 1\C,0,-4.167072,0.639785,-0.284618\C,0,-5.523215,0.918205,-0.260048\C,
 0,-6.453643,-0.056471,0.14537\N,0,-7.828021,0.221147,0.178165\C,0,-8.3
 00703,1.55297,0.385806\C,0,-9.254197,2.109715,-0.465769\H,0,-9.625209,
 1.528423,-1.30142\C,0,-9.745666,3.397532,-0.252908\C,0,-9.267005,4.157
 431,0.817016\C,0,-8.304305,3.60531,1.672687\C,0,-7.836741,2.318757,1.4
 66163\H,0,-7.103023,1.89706,2.142771\H,0,-7.950783,4.202556,2.504337\O
 ,0,-9.668305,5.425275,1.114274\C,0,-10.642233,6.03995,0.282435\H,0,-10
 .285306,6.139026,-0.748855\H,0,-11.585682,5.482513,0.288556\H,0,-10.80
 8033,7.030888,0.701547\H,0,-10.488787,3.794368,-0.93121\C,0,-8.790537,
 -0.816003,-0.01459\C,0,-8.706892,-1.681719,-1.105345\C,0,-9.647255,-2.
 694117,-1.294967\C,0,-10.70787,-2.83637,-0.396541\C,0,-10.805065,-1.96
 0304,0.692355\C,0,-9.855745,-0.970857,0.884487\H,0,-9.935782,-0.303465
 ,1.734163\H,0,-11.631034,-2.085101,1.381938\O,0,-11.686719,-3.78038,-0
 .489179\C,0,-11.645727,-4.694126,-1.575939\H,0,-11.722954,-4.177359,-2
 .539191\H,0,-10.731032,-5.297522,-1.559834\H,0,-12.508032,-5.346312,-1
 .448547\H,0,-9.548391,-3.348753,-2.150306\H,0,-7.894861,-1.569078,-1.8
 13892\C,0,-5.957184,-1.318867,0.523743\C,0,-4.600126,-1.587169,0.49473
 7\H,0,-4.253834,-2.557328,0.831925\H,0,-6.64587,-2.082701,0.860973\H,0
 ,-5.873589,1.893646,-0.571326\H,0,-3.486389,1.408137,-0.634689\C,0,-1.
 625489,-2.161053,-0.07841\C,0,-0.219718,-2.083396,-0.064821\H,0,-2.191
 968,-3.072577,-0.2147\S,0,2.977646,0.322058,0.184968\C,0,4.162184,-0.9
 88087,0.012416\C,0,3.51621,-2.21773,-0.113955\H,0,4.06458,-3.142153,-0
 .244654\C,0,5.567054,-0.737299,0.045138\S,0,6.680862,-2.036515,0.37655
 5\C,0,8.117241,-1.007346,0.249715\C,0,7.699721,0.298072,-0.013178\C,0,
 6.283611,0.455188,-0.144695\C,0,5.918293,1.776862,-0.543528\C,0,7.0020
 29,2.580666,-0.716207\S,0,8.542754,1.781825,-0.380001\C,0,6.929485,3.9
 95445,-1.127359\O,0,5.9002,4.586493,-1.352715\O,0,8.156994,4.542399,-1
 .221469\C,0,8.202058,5.929065,-1.604344\H,0,7.756993,6.064628,-2.59108
 \H,0,7.661788,6.539691,-0.879736\H,0,9.25704,6.190991,-1.617581\H,0,4.
 914608,2.135918,-0.716605\C,0,9.37614,-1.65344,0.354095\C,0,10.622163,
 -1.158916,0.653764\C,0,10.831709,0.144243,1.17759\N,0,10.995247,1.1939
 76,1.635252\C,0,11.834467,-2.036742,0.645164\O,0,11.763023,-3.147544,-
 0.146859\H,0,11.061204,-3.044195,-0.799445\O,0,12.816952,-1.818928,1.2
 96115\H,0,9.33135,-2.730405,0.206037\C,0,0.917271,-3.80042,-1.548251\H
 ,0,0.924169,-3.086302,-2.374015\H,0,1.789433,-4.452223,-1.648799\H,0,0
 .021019,-4.420217,-1.637464\C,0,0.930182,-4.093261,0.972236\H,0,0.9472
 17,-3.587426,1.939546\H,0,0.0336,-4.717316,0.926403\H,0,1.80217,-4.750
 158,0.911574\\Version=ES64L-G16RevB.01\State=1-A\HF=-3811.1989487\RMSD
 =5.506e-09\PG=C01 [X(C43H32N2O6S4)]\\@


 ALTHOUGH J.J. COULD DIAGNOSE THE FAULTS OF AN
 APPARATUS WITH UNCANNY ACCURACY, IT WAS JUST AS
 WELL NOT TO LET HIM HANDLE IT.
   -- GEORGE THOMPSON, ABOUT HIS FATHER
 Job cpu time:       0 days  8 hours 12 minutes 21.3 seconds.
 Elapsed time:       0 days  8 hours 23 minutes 56.4 seconds.
 File lengths (MBytes):  RWF=   8911 Int=      0 D2E=      0 Chk=    551 Scr=      1
 Normal termination of Gaussian 16 at Wed Jun 16 21:06:40 2021.
