 Entering Gaussian System, Link 0=g16
 Input=ES.com
 Output=PBE1PBE1.out
 Initial command:
 /usr/local/apps/gaussian/g16-c01-avx2//g16/l1.exe "/tmp/r2532.917198.maple/Gau-14440.inp" -scrdir="/tmp/r2532.917198.maple/"
 Entering Link 1 = /usr/local/apps/gaussian/g16-c01-avx2//g16/l1.exe PID=     14441.
  
 Copyright (c) 1988-2019, Gaussian, Inc.  All Rights Reserved.
  
 This is part of the Gaussian(R) 16 program.  It is based on
 the Gaussian(R) 09 system (copyright 2009, Gaussian, Inc.),
 the Gaussian(R) 03 system (copyright 2003, Gaussian, Inc.),
 the Gaussian(R) 98 system (copyright 1998, Gaussian, Inc.),
 the Gaussian(R) 94 system (copyright 1995, Gaussian, Inc.),
 the Gaussian 92(TM) system (copyright 1992, Gaussian, Inc.),
 the Gaussian 90(TM) system (copyright 1990, Gaussian, Inc.),
 the Gaussian 88(TM) system (copyright 1988, Gaussian, Inc.),
 the Gaussian 86(TM) system (copyright 1986, Carnegie Mellon
 University), and the Gaussian 82(TM) system (copyright 1983,
 Carnegie Mellon University). Gaussian is a federally registered
 trademark of Gaussian, Inc.
  
 This software contains proprietary and confidential information,
 including trade secrets, belonging to Gaussian, Inc.
  
 This software is provided under written license and may be
 used, copied, transmitted, or stored only in accord with that
 written license.
  
 The following legend is applicable only to US Government
 contracts under FAR:
  
                    RESTRICTED RIGHTS LEGEND
  
 Use, reproduction and disclosure by the US Government is
 subject to restrictions as set forth in subparagraphs (a)
 and (c) of the Commercial Computer Software - Restricted
 Rights clause in FAR 52.227-19.
  
 Gaussian, Inc.
 340 Quinnipiac St., Bldg. 40, Wallingford CT 06492
  
  
 ---------------------------------------------------------------
 Warning -- This program may not be used in any manner that
 competes with the business of Gaussian, Inc. or will provide
 assistance to any competitor of Gaussian, Inc.  The licensee
 of this program is prohibited from giving any competitor of
 Gaussian, Inc. access to this program.  By using this program,
 the user acknowledges that Gaussian, Inc. is engaged in the
 business of creating and licensing software in the field of
 computational chemistry and represents and warrants to the
 licensee that it is not a competitor of Gaussian, Inc. and that
 it will not use this program in any manner prohibited above.
 ---------------------------------------------------------------
  

 Cite this work as:
 Gaussian 16, Revision C.01,
 M. J. Frisch, G. W. Trucks, H. B. Schlegel, G. E. Scuseria, 
 M. A. Robb, J. R. Cheeseman, G. Scalmani, V. Barone, 
 G. A. Petersson, H. Nakatsuji, X. Li, M. Caricato, A. V. Marenich, 
 J. Bloino, B. G. Janesko, R. Gomperts, B. Mennucci, H. P. Hratchian, 
 J. V. Ortiz, A. F. Izmaylov, J. L. Sonnenberg, D. Williams-Young, 
 F. Ding, F. Lipparini, F. Egidi, J. Goings, B. Peng, A. Petrone, 
 T. Henderson, D. Ranasinghe, V. G. Zakrzewski, J. Gao, N. Rega, 
 G. Zheng, W. Liang, M. Hada, M. Ehara, K. Toyota, R. Fukuda, 
 J. Hasegawa, M. Ishida, T. Nakajima, Y. Honda, O. Kitao, H. Nakai, 
 T. Vreven, K. Throssell, J. A. Montgomery, Jr., J. E. Peralta, 
 F. Ogliaro, M. J. Bearpark, J. J. Heyd, E. N. Brothers, K. N. Kudin, 
 V. N. Staroverov, T. A. Keith, R. Kobayashi, J. Normand, 
 K. Raghavachari, A. P. Rendell, J. C. Burant, S. S. Iyengar, 
 J. Tomasi, M. Cossi, J. M. Millam, M. Klene, C. Adamo, R. Cammi, 
 J. W. Ochterski, R. L. Martin, K. Morokuma, O. Farkas, 
 J. B. Foresman, and D. J. Fox, Gaussian, Inc., Wallingford CT, 2019.
 
 ******************************************
 Gaussian 16:  ES64L-G16RevC.01  3-Jul-2019
                28-Jul-2021 
 ******************************************
 %mem=8gb
 -------------------------------------
 #N TD(NStates=10) PBE1PBE/6-311G(d,p)
 -------------------------------------
 1/38=1,172=1/1;
 2/12=2,17=6,18=5,40=1/2;
 3/5=4,6=6,7=101,11=9,25=1,30=1,74=-13/1,2,3,8;
 4//1;
 5/5=2,38=5/2;
 8/6=1,10=2,108=10/1;
 9/41=10,42=1,70=2/14;
 6/7=2,8=2,9=2,10=2/1;
 99/5=1,9=1/99;
 ---------
 C25H20ON4
 ---------
 Symbolic Z-matrix:
 Charge =  0 Multiplicity = 1
 7                    -7.91      1.25397   0.14277 
 6                    -6.5744    1.6831    0.07196 
 6                    -6.22472   3.02008   0.3369 
 6                    -4.90576   3.43267   0.27183 
 6                    -3.86476   2.54781  -0.07062 
 6                    -4.22325   1.20945  -0.33316 
 6                    -5.53984   0.78937  -0.26159 
 6                    -8.38023   0.19008  -0.68433 
 6                    -8.13977   0.18677  -2.05867 
 6                    -8.60381  -0.84937  -2.86856 
 6                    -9.34297  -1.89383  -2.30778 
 6                    -9.59793  -1.88973  -0.93047 
 6                    -9.11611  -0.86761  -0.13017 
 6                    -8.83996   1.89609   1.01411 
 6                    -8.5301    2.10424   2.36706 
 6                    -9.43808   2.71609   3.21429 
 6                    -10.69333   3.11921   2.73983 
 6                    -11.01655   2.90466   1.39817 
 6                    -10.08823   2.30635   0.54633 
 1                    -6.99521   3.73398   0.59767 
 1                    -4.68016   4.46896   0.4983 
 6                    -2.48484   2.99987  -0.16254 
 1                    -3.44748   0.49909  -0.58015 
 1                    -5.77688  -0.24727  -0.46449 
 1                    -7.5778    0.99955  -2.50304 
 1                    -8.39428  -0.81968  -3.9293 
 8                    -9.85419  -2.94925  -3.0045 
 1                    -10.16795  -2.709    -0.50939 
 1                    -9.31181  -0.87815   0.93537 
 1                    -7.56841   1.78312   2.74904 
 1                    -9.20534   2.87949   4.25956 
 8                    -11.51758   3.69988   3.65796 
 1                    -11.97653   3.20457   1. 
 1                    -10.3438   2.14994  -0.49482 
 6                    -1.28291   2.27562  -0.14562 
 6                    -0.10629   3.09477  -0.25446 
 6                    -0.37781   4.4655   -0.37813 
 16                   -2.11208   4.68652  -0.3483 
 6                     0.51025   5.60373  -0.50406 
 6                     0.00905   6.90171  -0.75236 
 6                     0.8553    7.98416  -0.86752 
 6                     2.2563    7.8476   -0.74715 
 6                     2.75788   6.55073  -0.49687 
 6                     1.91357   5.46465  -0.37882 
 6                     3.04922   9.04171  -0.88929 
 6                     4.3953    9.26387  -0.84983 
 6                     4.85372   10.6668  -1.04159 
 8                     4.12716   11.61502  -1.22771 
 8                     6.19858   10.77792  -0.98547 
 7                    -1.18082   0.92412  -0.07711 
 7                     1.12737   2.53133  -0.17791 
 1                    -1.0574    7.05996  -0.86345 
 1                     0.43796   8.96678  -1.06045 
 1                     3.82142   6.39027  -0.38894 
 1                     2.32105   4.48416  -0.18146 
 1                     2.48052   9.9515   -1.06369 
 6                     5.38049   8.25847  -0.64392 
 1                     6.40153   11.71507  -1.11838 
 7                     6.17837   7.43757  -0.47775 
 6                     0.01781   0.38213  -0.06723 
 6                     1.21837   1.22456  -0.04397 
 6                     0.05663  -1.0994   -0.12609 
 6                     0.95654  -1.79542  -0.94594 
 6                     2.86374  -0.29882   1.12165 
 6                     2.58458   0.69389   0.17099 
 6                     3.67014   1.26021  -0.51505 
 6                     4.97047   0.84383  -0.2838 
 6                     5.2461   -0.15258   0.67138 
 6                     4.16271  -0.71157   1.3735 
 6                     0.91923  -3.17746  -1.04812 
 6                    -0.02273  -3.92877  -0.32317 
 6                    -0.93229  -3.23419   0.49441 
 6                    -0.89341  -1.85134   0.58037 
 1                     3.4815    2.04718  -1.23493 
 1                     5.78558   1.29918  -0.83112 
 1                     4.34565  -1.47523   2.11802 
 1                     1.62647  -3.68475  -1.69136 
 1                    -1.6752   -3.78583   1.05615 
 1                    -1.61637  -1.33263   1.19802 
 6                    -12.8043   4.12765   3.23589 
 6                    -9.63595  -3.00258  -4.40661 
 1                    -13.28107   4.55152   4.11812 
 1                    -12.73779   4.89587   2.45716 
 1                    -13.40627   3.28911   2.86763 
 1                    -10.08023  -2.14007  -4.91624 
 1                    -8.5678   -3.05471  -4.64633 
 1                    -10.12527  -3.91278  -4.74945 
 7                     6.56332  -0.57097   0.92001 
 6                     7.32159  -1.10044  -1.35631 
 6                     7.55365  -0.52318  -0.10781 
 6                     8.79232   0.09073   0.12743 
 6                     9.7651    0.12067  -0.8575 
 6                     9.52105  -0.44792  -2.11409 
 6                     8.28809  -1.05672  -2.3609 
 1                     8.07082  -1.50985  -3.31871 
 1                     8.98667   0.54382   1.09214 
 1                     6.37186  -1.58465  -1.55053 
 8                     10.53957  -0.35597  -3.01643 
 1                     10.72318   0.59514  -0.68353 
 6                     7.63604  -2.2727    2.32272 
 6                     6.94404  -1.068     2.20292 
 6                     6.65586  -0.34112   3.36828 
 6                     7.03657  -0.81806   4.61097 
 6                     7.73631  -2.02662   4.72413 
 6                     8.04114  -2.75022   3.5692 
 1                     6.12841   0.60213   3.29087 
 1                     7.86971  -2.84216   1.43114 
 8                     8.07339  -2.40207   5.99154 
 1                     6.81825  -0.26197   5.51458 
 6                     10.34541  -0.90155  -4.31277 
 1                     11.26756  -0.70787  -4.85825 
 1                     10.17005  -1.98276  -4.27274 
 1                     9.51027  -0.41763  -4.83185 
 7                    -0.05477  -5.33253  -0.41358 
 6                     1.27914  -7.05216  -1.55267 
 6                     0.3573   -5.99634  -1.6076 
 6                    -0.1548   -5.62384  -2.85092 
 6                     0.24986  -6.26855  -4.0197 
 6                     1.165    -7.32193  -3.95275 
 6                     1.67035  -7.71144  -2.70597 
 1                     2.38126  -8.52804  -2.67023 
 1                    -0.87287  -4.81455  -2.90964 
 1                     1.68417  -7.35475  -0.59444 
 8                     1.62348  -8.02686  -5.02726 
 1                    -0.16547  -5.94892  -4.96598 
 6                    -1.41964  -7.15183   0.50217 
 6                    -0.49173  -6.12707   0.68782 
 6                     0.02181  -5.91516   1.9767 
 6                    -0.39447  -6.69571   3.04174 
 6                    -1.32151  -7.72786   2.84683 
 6                    -1.82815  -7.95658   1.56576 
 1                    -2.54549  -8.74492   1.38149 
 1                     0.74958  -5.12893   2.1376 
 1                    -1.82317  -7.33059  -0.48729 
 8                    -1.65647  -8.44456   3.95822 
 1                    -0.00263  -6.53613   4.03897 
 6                     1.15037  -7.67413  -6.31862 
 6                    -2.59756  -9.49914   3.82296 
 1                     1.64713  -8.3503   -7.01253 
 1                     0.0655   -7.8064   -6.4007 
 1                     1.40961  -6.64027  -6.57385 
 1                    -2.23619  -10.27625   3.13972 
 1                    -3.56784  -9.13012   3.47157 
 1                    -2.71441  -9.92328   4.8189 
 1                     8.58122  -3.68578   3.62283 
 6                     8.78584  -3.61735   6.16891 
 1                     8.94659  -3.71423   7.24139 
 1                     8.20917  -4.47795   5.81109 
 1                     9.75573  -3.59359   5.65908 
 1                     1.6979   -1.25098  -1.51737 
 1                     2.05611  -0.75218   1.68258 
 
 Stoichiometry    C76H60N6O8S
 Framework group  C1[X(C76H60N6O8S)]
 Deg. of freedom   447
 Full point group                 C1      NOp   1
 Largest Abelian subgroup         C1      NOp   1
 Largest concise Abelian subgroup C1      NOp   1
                         Standard orientation:                         
 ---------------------------------------------------------------------
 Center     Atomic      Atomic             Coordinates (Angstroms)
 Number     Number       Type             X           Y           Z
 ---------------------------------------------------------------------
      1          7           0       -7.909998    1.253969    0.142774
      2          6           0       -6.574396    1.683095    0.071958
      3          6           0       -6.224716    3.020085    0.336904
      4          6           0       -4.905762    3.432674    0.271831
      5          6           0       -3.864764    2.547807   -0.070616
      6          6           0       -4.223248    1.209454   -0.333163
      7          6           0       -5.539841    0.789367   -0.261587
      8          6           0       -8.380227    0.190077   -0.684328
      9          6           0       -8.139772    0.186767   -2.058668
     10          6           0       -8.603813   -0.849372   -2.868563
     11          6           0       -9.342969   -1.893833   -2.307784
     12          6           0       -9.597928   -1.889730   -0.930465
     13          6           0       -9.116110   -0.867613   -0.130167
     14          6           0       -8.839962    1.896087    1.014106
     15          6           0       -8.530097    2.104237    2.367058
     16          6           0       -9.438078    2.716094    3.214291
     17          6           0      -10.693327    3.119209    2.739834
     18          6           0      -11.016552    2.904664    1.398167
     19          6           0      -10.088232    2.306347    0.546330
     20          1           0       -6.995209    3.733982    0.597669
     21          1           0       -4.680164    4.468964    0.498303
     22          6           0       -2.484840    2.999872   -0.162535
     23          1           0       -3.447475    0.499094   -0.580148
     24          1           0       -5.776883   -0.247270   -0.464487
     25          1           0       -7.577801    0.999546   -2.503043
     26          1           0       -8.394282   -0.819678   -3.929304
     27          8           0       -9.854190   -2.949249   -3.004504
     28          1           0      -10.167946   -2.708999   -0.509386
     29          1           0       -9.311809   -0.878149    0.935373
     30          1           0       -7.568412    1.783124    2.749042
     31          1           0       -9.205337    2.879494    4.259556
     32          8           0      -11.517579    3.699883    3.657963
     33          1           0      -11.976525    3.204572    0.999999
     34          1           0      -10.343805    2.149938   -0.494819
     35          6           0       -1.282906    2.275618   -0.145620
     36          6           0       -0.106285    3.094768   -0.254457
     37          6           0       -0.377809    4.465497   -0.378134
     38         16           0       -2.112078    4.686524   -0.348304
     39          6           0        0.510252    5.603729   -0.504058
     40          6           0        0.009050    6.901710   -0.752363
     41          6           0        0.855298    7.984156   -0.867519
     42          6           0        2.256297    7.847595   -0.747145
     43          6           0        2.757878    6.550732   -0.496866
     44          6           0        1.913568    5.464646   -0.378821
     45          6           0        3.049220    9.041705   -0.889289
     46          6           0        4.395302    9.263865   -0.849832
     47          6           0        4.853720   10.666798   -1.041589
     48          8           0        4.127155   11.615023   -1.227708
     49          8           0        6.198576   10.777918   -0.985469
     50          7           0       -1.180821    0.924115   -0.077108
     51          7           0        1.127368    2.531332   -0.177907
     52          1           0       -1.057401    7.059955   -0.863452
     53          1           0        0.437961    8.966785   -1.060452
     54          1           0        3.821422    6.390273   -0.388936
     55          1           0        2.321048    4.484156   -0.181458
     56          1           0        2.480519    9.951504   -1.063693
     57          6           0        5.380494    8.258469   -0.643924
     58          1           0        6.401526   11.715065   -1.118375
     59          7           0        6.178366    7.437573   -0.477745
     60          6           0        0.017807    0.382125   -0.067225
     61          6           0        1.218367    1.224560   -0.043972
     62          6           0        0.056625   -1.099400   -0.126094
     63          6           0        0.956540   -1.795424   -0.945936
     64          6           0        2.863736   -0.298821    1.121652
     65          6           0        2.584582    0.693890    0.170991
     66          6           0        3.670141    1.260211   -0.515054
     67          6           0        4.970473    0.843827   -0.283801
     68          6           0        5.246095   -0.152584    0.671381
     69          6           0        4.162712   -0.711566    1.373495
     70          6           0        0.919234   -3.177455   -1.048123
     71          6           0       -0.022731   -3.928770   -0.323172
     72          6           0       -0.932293   -3.234188    0.494408
     73          6           0       -0.893412   -1.851338    0.580366
     74          1           0        3.481502    2.047183   -1.234934
     75          1           0        5.785583    1.299183   -0.831124
     76          1           0        4.345649   -1.475231    2.118017
     77          1           0        1.626466   -3.684753   -1.691361
     78          1           0       -1.675201   -3.785834    1.056155
     79          1           0       -1.616368   -1.332629    1.198018
     80          6           0      -12.804301    4.127650    3.235893
     81          6           0       -9.635946   -3.002584   -4.406606
     82          1           0      -13.281069    4.551523    4.118122
     83          1           0      -12.737793    4.895873    2.457164
     84          1           0      -13.406274    3.289106    2.867632
     85          1           0      -10.080230   -2.140066   -4.916237
     86          1           0       -8.567796   -3.054710   -4.646325
     87          1           0      -10.125273   -3.912775   -4.749452
     88          7           0        6.563324   -0.570972    0.920009
     89          6           0        7.321587   -1.100438   -1.356308
     90          6           0        7.553652   -0.523181   -0.107812
     91          6           0        8.792325    0.090731    0.127426
     92          6           0        9.765096    0.120671   -0.857495
     93          6           0        9.521054   -0.447919   -2.114088
     94          6           0        8.288091   -1.056718   -2.360896
     95          1           0        8.070818   -1.509849   -3.318708
     96          1           0        8.986667    0.543822    1.092135
     97          1           0        6.371857   -1.584646   -1.550533
     98          8           0       10.539567   -0.355970   -3.016430
     99          1           0       10.723176    0.595135   -0.683532
    100          6           0        7.636035   -2.272704    2.322719
    101          6           0        6.944038   -1.068002    2.202916
    102          6           0        6.655859   -0.341124    3.368280
    103          6           0        7.036569   -0.818062    4.610975
    104          6           0        7.736310   -2.026623    4.724127
    105          6           0        8.041139   -2.750216    3.569198
    106          1           0        6.128406    0.602131    3.290872
    107          1           0        7.869710   -2.842158    1.431142
    108          8           0        8.073392   -2.402074    5.991536
    109          1           0        6.818245   -0.261965    5.514580
    110          6           0       10.345412   -0.901550   -4.312771
    111          1           0       11.267560   -0.707872   -4.858250
    112          1           0       10.170051   -1.982760   -4.272741
    113          1           0        9.510267   -0.417634   -4.831847
    114          7           0       -0.054765   -5.332532   -0.413582
    115          6           0        1.279144   -7.052159   -1.552673
    116          6           0        0.357301   -5.996338   -1.607602
    117          6           0       -0.154800   -5.623844   -2.850921
    118          6           0        0.249857   -6.268547   -4.019704
    119          6           0        1.164996   -7.321932   -3.952753
    120          6           0        1.670346   -7.711439   -2.705973
    121          1           0        2.381259   -8.528037   -2.670234
    122          1           0       -0.872866   -4.814547   -2.909635
    123          1           0        1.684172   -7.354748   -0.594439
    124          8           0        1.623475   -8.026860   -5.027256
    125          1           0       -0.165465   -5.948922   -4.965976
    126          6           0       -1.419636   -7.151827    0.502168
    127          6           0       -0.491734   -6.127068    0.687818
    128          6           0        0.021807   -5.915156    1.976704
    129          6           0       -0.394468   -6.695710    3.041737
    130          6           0       -1.321505   -7.727857    2.846828
    131          6           0       -1.828151   -7.956576    1.565756
    132          1           0       -2.545492   -8.744915    1.381486
    133          1           0        0.749583   -5.128930    2.137603
    134          1           0       -1.823169   -7.330594   -0.487291
    135          8           0       -1.656472   -8.444559    3.958220
    136          1           0       -0.002626   -6.536135    4.038974
    137          6           0        1.150371   -7.674134   -6.318622
    138          6           0       -2.597563   -9.499139    3.822964
    139          1           0        1.647125   -8.350299   -7.012530
    140          1           0        0.065496   -7.806402   -6.400696
    141          1           0        1.409607   -6.640270   -6.573849
    142          1           0       -2.236195  -10.276247    3.139725
    143          1           0       -3.567841   -9.130120    3.471570
    144          1           0       -2.714414   -9.923285    4.818897
    145          1           0        8.581223   -3.685783    3.622832
    146          6           0        8.785842   -3.617345    6.168906
    147          1           0        8.946590   -3.714229    7.241391
    148          1           0        8.209166   -4.477954    5.811088
    149          1           0        9.755735   -3.593587    5.659081
    150          1           0        1.697901   -1.250975   -1.517365
    151          1           0        2.056105   -0.752177    1.682584
 ---------------------------------------------------------------------
 Rotational constants (GHZ):           0.0140684           0.0098368           0.0068710
 Standard basis: 6-311G(d,p) (5D, 7F)
 There are  2097 symmetry adapted cartesian basis functions of A   symmetry.
 There are  2006 symmetry adapted basis functions of A   symmetry.
  2006 basis functions,  3406 primitive gaussians,  2097 cartesian basis functions
   319 alpha electrons      319 beta electrons
       nuclear repulsion energy     14370.1258655252 Hartrees.
 NAtoms=  151 NActive=  151 NUniq=  151 SFac= 1.00D+00 NAtFMM=   60 NAOKFM=T Big=T
 Integral buffers will be    131072 words long.
 Regular integral format.
 Two-electron integral symmetry is turned on.
 One-electron integrals computed using PRISM.
 NBasis=  2006 RedAO= T EigKep=  1.19D-04  NBF=  2006
 NBsUse=  2006 1.00D-06 EigRej= -1.00D+00 NBFU=  2006
 ExpMin= 7.71D-02 ExpMax= 9.34D+04 ExpMxC= 3.17D+03 IAcc=3 IRadAn=         5 AccDes= 0.00D+00
 Harris functional with IExCor= 1009 and IRadAn=       5 diagonalized for initial guess.
 HarFok:  IExCor= 1009 AccDes= 0.00D+00 IRadAn=         5 IDoV= 1 UseB2=F ITyADJ=14
 ICtDFT=  3500011 ScaDFX=  1.000000  1.000000  1.000000  1.000000
 FoFCou: FMM=F IPFlag=           0 FMFlag=      100000 FMFlg1=        2001
         NFxFlg=           0 DoJE=T BraDBF=F KetDBF=T FulRan=T
         wScrn=  0.000000 ICntrl=       500 IOpCl=  0 I1Cent=   200000004 NGrid=           0
         NMat0=    1 NMatS0=      1 NMatT0=    0 NMatD0=    1 NMtDS0=    0 NMtDT0=    0
 Petite list used in FoFCou.
 Requested convergence on RMS density matrix=1.00D-08 within 128 cycles.
 Requested convergence on MAX density matrix=1.00D-06.
 Requested convergence on             energy=1.00D-06.
 No special actions if energy rises.
 Integral accuracy reduced to 1.0D-05 until final iterations.
 Initial convergence to 1.0D-05 achieved.  Increase integral accuracy.
 SCF Done:  E(RPBE1PBE) =  -4256.94802941     A.U. after   16 cycles
            NFock= 16  Conv=0.34D-08     -V/T= 2.0037
 DoSCS=F DFT=T ScalE2(SS,OS)=  1.000000  1.000000
 ExpMin= 7.71D-02 ExpMax= 9.34D+04 ExpMxC= 3.17D+03 IAcc=3 IRadAn=         5 AccDes= 0.00D+00
 HarFok:  IExCor=  205 AccDes= 0.00D+00 IRadAn=         5 IDoV=-2 UseB2=F ITyADJ=14
 ICtDFT= 12500011 ScaDFX=  1.000000  1.000000  1.000000  1.000000
 GSVD:  LWork=       -9785 too small for GESVD, short by       46550 words or       46550 for optimal perf.
 Range of M.O.s used for correlation:    96  2006
 NBasis=  2006 NAE=   319 NBE=   319 NFC=    95 NFV=     0
 NROrb=   1911 NOA=   224 NOB=   224 NVA=  1687 NVB=  1687

 **** Warning!!: The largest alpha MO coefficient is  0.11847168D+02


 **** Warning!!: The smallest alpha delta epsilon is  0.84148961D-01

 Orbital symmetries:
       Occupied  (A) (A) (A) (A) (A) (A) (A) (A) (A) (A) (A) (A)
                 (A) (A) (A) (A) (A) (A) (A) (A) (A) (A) (A) (A)
                 (A) (A) (A) (A) (A) (A) (A) (A) (A) (A) (A) (A)
                 (A) (A) (A) (A) (A) (A) (A) (A) (A) (A) (A) (A)
                 (A) (A) (A) (A) (A) (A) (A) (A) (A) (A) (A) (A)
                 (A) (A) (A) (A) (A) (A) (A) (A) (A) (A) (A) (A)
                 (A) (A) (A) (A) (A) (A) (A) (A) (A) (A) (A) (A)
                 (A) (A) (A) (A) (A) (A) (A) (A) (A) (A) (A) (A)
                 (A) (A) (A) (A) (A) (A) (A) (A) (A) (A) (A) (A)
                 (A) (A) (A) (A) (A) (A) (A) (A) (A) (A) (A) (A)
                 (A) (A) (A) (A) (A) (A) (A) (A) (A) (A) (A) (A)
                 (A) (A) (A) (A) (A) (A) (A) (A) (A) (A) (A) (A)
                 (A) (A) (A) (A) (A) (A) (A) (A) (A) (A) (A) (A)
                 (A) (A) (A) (A) (A) (A) (A) (A) (A) (A) (A) (A)
                 (A) (A) (A) (A) (A) (A) (A) (A) (A) (A) (A) (A)
                 (A) (A) (A) (A) (A) (A) (A) (A) (A) (A) (A) (A)
                 (A) (A) (A) (A) (A) (A) (A) (A) (A) (A) (A) (A)
                 (A) (A) (A) (A) (A) (A) (A) (A) (A) (A) (A) (A)
                 (A) (A) (A) (A) (A) (A) (A) (A) (A) (A) (A) (A)
                 (A) (A) (A) (A) (A) (A) (A) (A) (A) (A) (A) (A)
                 (A) (A) (A) (A) (A) (A) (A) (A) (A) (A) (A) (A)
                 (A) (A) (A) (A) (A) (A) (A) (A) (A) (A) (A) (A)
                 (A) (A) (A) (A) (A) (A) (A) (A) (A) (A) (A) (A)
                 (A) (A) (A) (A) (A) (A) (A) (A) (A) (A) (A) (A)
                 (A) (A) (A) (A) (A) (A) (A) (A) (A) (A) (A) (A)
                 (A) (A) (A) (A) (A) (A) (A) (A) (A) (A) (A) (A)
                 (A) (A) (A) (A) (A) (A) (A)
       Virtual   (A) (A) (A) (A) (A) (A) (A) (A) (A) (A) (A) (A)
                 (A) (A) (A) (A) (A) (A) (A) (A) (A) (A) (A) (A)
                 (A) (A) (A) (A) (A) (A) (A) (A) (A) (A) (A) (A)
                 (A) (A) (A) (A) (A) (A) (A) (A) (A) (A) (A) (A)
                 (A) (A) (A) (A) (A) (A) (A) (A) (A) (A) (A) (A)
                 (A) (A) (A) (A) (A) (A) (A) (A) (A) (A) (A) (A)
                 (A) (A) (A) (A) (A) (A) (A) (A) (A) (A) (A) (A)
                 (A) (A) (A) (A) (A) (A) (A) (A) (A) (A) (A) (A)
                 (A) (A) (A) (A) (A) (A) (A) (A) (A) (A) (A) (A)
                 (A) (A) (A) (A) (A) (A) (A) (A) (A) (A) (A) (A)
                 (A) (A) (A) (A) (A) (A) (A) (A) (A) (A) (A) (A)
                 (A) (A) (A) (A) (A) (A) (A) (A) (A) (A) (A) (A)
                 (A) (A) (A) (A) (A) (A) (A) (A) (A) (A) (A) (A)
                 (A) (A) (A) (A) (A) (A) (A) (A) (A) (A) (A) (A)
                 (A) (A) (A) (A) (A) (A) (A) (A) (A) (A) (A) (A)
                 (A) (A) (A) (A) (A) (A) (A) (A) (A) (A) (A) (A)
                 (A) (A) (A) (A) (A) (A) (A) (A) (A) (A) (A) (A)
                 (A) (A) (A) (A) (A) (A) (A) (A) (A) (A) (A) (A)
                 (A) (A) (A) (A) (A) (A) (A) (A) (A) (A) (A) (A)
                 (A) (A) (A) (A) (A) (A) (A) (A) (A) (A) (A) (A)
                 (A) (A) (A) (A) (A) (A) (A) (A) (A) (A) (A) (A)
                 (A) (A) (A) (A) (A) (A) (A) (A) (A) (A) (A) (A)
                 (A) (A) (A) (A) (A) (A) (A) (A) (A) (A) (A) (A)
                 (A) (A) (A) (A) (A) (A) (A) (A) (A) (A) (A) (A)
                 (A) (A) (A) (A) (A) (A) (A) (A) (A) (A) (A) (A)
                 (A) (A) (A) (A) (A) (A) (A) (A) (A) (A) (A) (A)
                 (A) (A) (A) (A) (A) (A) (A) (A) (A) (A) (A) (A)
                 (A) (A) (A) (A) (A) (A) (A) (A) (A) (A) (A) (A)
                 (A) (A) (A) (A) (A) (A) (A) (A) (A) (A) (A) (A)
                 (A) (A) (A) (A) (A) (A) (A) (A) (A) (A) (A) (A)
                 (A) (A) (A) (A) (A) (A) (A) (A) (A) (A) (A) (A)
                 (A) (A) (A) (A) (A) (A) (A) (A) (A) (A) (A) (A)
                 (A) (A) (A) (A) (A) (A) (A) (A) (A) (A) (A) (A)
                 (A) (A) (A) (A) (A) (A) (A) (A) (A) (A) (A) (A)
                 (A) (A) (A) (A) (A) (A) (A) (A) (A) (A) (A) (A)
                 (A) (A) (A) (A) (A) (A) (A) (A) (A) (A) (A) (A)
                 (A) (A) (A) (A) (A) (A) (A) (A) (A) (A) (A) (A)
                 (A) (A) (A) (A) (A) (A) (A) (A) (A) (A) (A) (A)
                 (A) (A) (A) (A) (A) (A) (A) (A) (A) (A) (A) (A)
                 (A) (A) (A) (A) (A) (A) (A) (A) (A) (A) (A) (A)
                 (A) (A) (A) (A) (A) (A) (A) (A) (A) (A) (A) (A)
                 (A) (A) (A) (A) (A) (A) (A) (A) (A) (A) (A) (A)
                 (A) (A) (A) (A) (A) (A) (A) (A) (A) (A) (A) (A)
                 (A) (A) (A) (A) (A) (A) (A) (A) (A) (A) (A) (A)
                 (A) (A) (A) (A) (A) (A) (A) (A) (A) (A) (A) (A)
                 (A) (A) (A) (A) (A) (A) (A) (A) (A) (A) (A) (A)
                 (A) (A) (A) (A) (A) (A) (A) (A) (A) (A) (A) (A)
                 (A) (A) (A) (A) (A) (A) (A) (A) (A) (A) (A) (A)
                 (A) (A) (A) (A) (A) (A) (A) (A) (A) (A) (A) (A)
                 (A) (A) (A) (A) (A) (A) (A) (A) (A) (A) (A) (A)
                 (A) (A) (A) (A) (A) (A) (A) (A) (A) (A) (A) (A)
                 (A) (A) (A) (A) (A) (A) (A) (A) (A) (A) (A) (A)
                 (A) (A) (A) (A) (A) (A) (A) (A) (A) (A) (A) (A)
                 (A) (A) (A) (A) (A) (A) (A) (A) (A) (A) (A) (A)
                 (A) (A) (A) (A) (A) (A) (A) (A) (A) (A) (A) (A)
                 (A) (A) (A) (A) (A) (A) (A) (A) (A) (A) (A) (A)
                 (A) (A) (A) (A) (A) (A) (A) (A) (A) (A) (A) (A)
                 (A) (A) (A) (A) (A) (A) (A) (A) (A) (A) (A) (A)
                 (A) (A) (A) (A) (A) (A) (A) (A) (A) (A) (A) (A)
                 (A) (A) (A) (A) (A) (A) (A) (A) (A) (A) (A) (A)
                 (A) (A) (A) (A) (A) (A) (A) (A) (A) (A) (A) (A)
                 (A) (A) (A) (A) (A) (A) (A) (A) (A) (A) (A) (A)
                 (A) (A) (A) (A) (A) (A) (A) (A) (A) (A) (A) (A)
                 (A) (A) (A) (A) (A) (A) (A) (A) (A) (A) (A) (A)
                 (A) (A) (A) (A) (A) (A) (A) (A) (A) (A) (A) (A)
                 (A) (A) (A) (A) (A) (A) (A) (A) (A) (A) (A) (A)
                 (A) (A) (A) (A) (A) (A) (A) (A) (A) (A) (A) (A)
                 (A) (A) (A) (A) (A) (A) (A) (A) (A) (A) (A) (A)
                 (A) (A) (A) (A) (A) (A) (A) (A) (A) (A) (A) (A)
                 (A) (A) (A) (A) (A) (A) (A) (A) (A) (A) (A) (A)
                 (A) (A) (A) (A) (A) (A) (A) (A) (A) (A) (A) (A)
                 (A) (A) (A) (A) (A) (A) (A) (A) (A) (A) (A) (A)
                 (A) (A) (A) (A) (A) (A) (A) (A) (A) (A) (A) (A)
                 (A) (A) (A) (A) (A) (A) (A) (A) (A) (A) (A) (A)
                 (A) (A) (A) (A) (A) (A) (A) (A) (A) (A) (A) (A)
                 (A) (A) (A) (A) (A) (A) (A) (A) (A) (A) (A) (A)
                 (A) (A) (A) (A) (A) (A) (A) (A) (A) (A) (A) (A)
                 (A) (A) (A) (A) (A) (A) (A) (A) (A) (A) (A) (A)
                 (A) (A) (A) (A) (A) (A) (A) (A) (A) (A) (A) (A)
                 (A) (A) (A) (A) (A) (A) (A) (A) (A) (A) (A) (A)
                 (A) (A) (A) (A) (A) (A) (A) (A) (A) (A) (A) (A)
                 (A) (A) (A) (A) (A) (A) (A) (A) (A) (A) (A) (A)
                 (A) (A) (A) (A) (A) (A) (A) (A) (A) (A) (A) (A)
                 (A) (A) (A) (A) (A) (A) (A) (A) (A) (A) (A) (A)
                 (A) (A) (A) (A) (A) (A) (A) (A) (A) (A) (A) (A)
                 (A) (A) (A) (A) (A) (A) (A) (A) (A) (A) (A) (A)
                 (A) (A) (A) (A) (A) (A) (A) (A) (A) (A) (A) (A)
                 (A) (A) (A) (A) (A) (A) (A) (A) (A) (A) (A) (A)
                 (A) (A) (A) (A) (A) (A) (A) (A) (A) (A) (A) (A)
                 (A) (A) (A) (A) (A) (A) (A) (A) (A) (A) (A) (A)
                 (A) (A) (A) (A) (A) (A) (A) (A) (A) (A) (A) (A)
                 (A) (A) (A) (A) (A) (A) (A) (A) (A) (A) (A) (A)
                 (A) (A) (A) (A) (A) (A) (A) (A) (A) (A) (A) (A)
                 (A) (A) (A) (A) (A) (A) (A) (A) (A) (A) (A) (A)
                 (A) (A) (A) (A) (A) (A) (A) (A) (A) (A) (A) (A)
                 (A) (A) (A) (A) (A) (A) (A) (A) (A) (A) (A) (A)
                 (A) (A) (A) (A) (A) (A) (A) (A) (A) (A) (A) (A)
                 (A) (A) (A) (A) (A) (A) (A) (A) (A) (A) (A) (A)
                 (A) (A) (A) (A) (A) (A) (A) (A) (A) (A) (A) (A)
                 (A) (A) (A) (A) (A) (A) (A) (A) (A) (A) (A) (A)
                 (A) (A) (A) (A) (A) (A) (A) (A) (A) (A) (A) (A)
                 (A) (A) (A) (A) (A) (A) (A) (A) (A) (A) (A) (A)
                 (A) (A) (A) (A) (A) (A) (A) (A) (A) (A) (A) (A)
                 (A) (A) (A) (A) (A) (A) (A) (A) (A) (A) (A) (A)
                 (A) (A) (A) (A) (A) (A) (A) (A) (A) (A) (A) (A)
                 (A) (A) (A) (A) (A) (A) (A) (A) (A) (A) (A) (A)
                 (A) (A) (A) (A) (A) (A) (A) (A) (A) (A) (A) (A)
                 (A) (A) (A) (A) (A) (A) (A) (A) (A) (A) (A) (A)
                 (A) (A) (A) (A) (A) (A) (A) (A) (A) (A) (A) (A)
                 (A) (A) (A) (A) (A) (A) (A) (A) (A) (A) (A) (A)
                 (A) (A) (A) (A) (A) (A) (A) (A) (A) (A) (A) (A)
                 (A) (A) (A) (A) (A) (A) (A) (A) (A) (A) (A) (A)
                 (A) (A) (A) (A) (A) (A) (A) (A) (A) (A) (A) (A)
                 (A) (A) (A) (A) (A) (A) (A) (A) (A) (A) (A) (A)
                 (A) (A) (A) (A) (A) (A) (A) (A) (A) (A) (A) (A)
                 (A) (A) (A) (A) (A) (A) (A) (A) (A) (A) (A) (A)
                 (A) (A) (A) (A) (A) (A) (A) (A) (A) (A) (A) (A)
                 (A) (A) (A) (A) (A) (A) (A) (A) (A) (A) (A) (A)
                 (A) (A) (A) (A) (A) (A) (A) (A) (A) (A) (A) (A)
                 (A) (A) (A) (A) (A) (A) (A) (A) (A) (A) (A) (A)
                 (A) (A) (A) (A) (A) (A) (A) (A) (A) (A) (A) (A)
                 (A) (A) (A) (A) (A) (A) (A) (A) (A) (A) (A) (A)
                 (A) (A) (A) (A) (A) (A) (A) (A) (A) (A) (A) (A)
                 (A) (A) (A) (A) (A) (A) (A) (A) (A) (A) (A) (A)
                 (A) (A) (A) (A) (A) (A) (A) (A) (A) (A) (A) (A)
                 (A) (A) (A) (A) (A) (A) (A) (A) (A) (A) (A) (A)
                 (A) (A) (A) (A) (A) (A) (A) (A) (A) (A) (A) (A)
                 (A) (A) (A) (A) (A) (A) (A) (A) (A) (A) (A) (A)
                 (A) (A) (A) (A) (A) (A) (A) (A) (A) (A) (A) (A)
                 (A) (A) (A) (A) (A) (A) (A) (A) (A) (A) (A) (A)
                 (A) (A) (A) (A) (A) (A) (A) (A) (A) (A) (A) (A)
                 (A) (A) (A) (A) (A) (A) (A) (A) (A) (A) (A) (A)
                 (A) (A) (A) (A) (A) (A) (A) (A) (A) (A) (A) (A)
                 (A) (A) (A) (A) (A) (A) (A) (A) (A) (A) (A) (A)
                 (A) (A) (A) (A) (A) (A) (A) (A) (A) (A) (A) (A)
                 (A) (A) (A) (A) (A) (A) (A) (A) (A) (A) (A) (A)
                 (A) (A) (A) (A) (A) (A) (A) (A) (A) (A) (A) (A)
                 (A) (A) (A) (A) (A) (A) (A) (A) (A) (A) (A) (A)
                 (A) (A) (A) (A) (A) (A) (A) (A) (A) (A) (A) (A)
                 (A) (A) (A) (A) (A) (A) (A) (A) (A) (A) (A) (A)
                 (A) (A) (A) (A) (A) (A) (A)
    40 initial guesses have been made.
 Convergence on wavefunction:    0.001000000000000
 Iteration     1 Dimension    40 NMult     0 NNew     40
 CISAX will form    40 AO SS matrices at one time.
 New state      1 was old state      2
 New state      2 was old state      1
 New state      5 was old state      6
 New state      6 was old state      7
 New state      7 was old state      5
 New state      8 was old state     16
 New state      9 was old state      8
 New state     10 was old state      9
 Iteration     2 Dimension    60 NMult    40 NNew     20
 New state      1 was old state      2
 New state      2 was old state      1
 Iteration     3 Dimension    80 NMult    60 NNew     20
 Iteration     4 Dimension   100 NMult    80 NNew     20
 Iteration     5 Dimension   120 NMult   100 NNew     20
 Iteration     6 Dimension   132 NMult   120 NNew     12
 Iteration     7 Dimension   134 NMult   132 NNew      2
 ***********************************************************************
 Excited states from <AA,BB:AA,BB> singles matrix:
 ***********************************************************************
 
 Ground to excited state transition densities written to RWF  633
 Ground to excited state transition electric dipole moments (Au):
       state          X           Y           Z        Dip. S.      Osc.
         1        -3.3591     -1.3875      0.2432     13.2681      0.6206
         2         1.2125     -1.8645      0.2943      5.0331      0.2468
         3        -1.5138     -1.1937     -0.0610      3.7204      0.1986
         4        -0.3305     -1.4858      0.0556      2.3200      0.1451
         5        -0.0054      2.0200     -0.1182      4.0944      0.2691
         6         1.2131      1.6672     -0.0798      4.2575      0.2874
         7        -0.2191      0.3508      0.1671      0.1990      0.0143
         8        -0.3563     -0.6119      0.1062      0.5127      0.0392
         9        -0.3444      0.4435     -0.1064      0.3266      0.0265
        10         1.5730      0.5648     -0.1226      2.8085      0.2319
 Ground to excited state transition velocity dipole moments (Au):
       state          X           Y           Z        Dip. S.      Osc.
         1         0.2360      0.0976     -0.0168      0.0655      0.6223
         2        -0.0859      0.1348     -0.0210      0.0260      0.2356
         3         0.1211      0.0938      0.0040      0.0235      0.1955
         4         0.0227      0.1322     -0.0056      0.0180      0.1281
         5        -0.0004     -0.1972      0.0106      0.0390      0.2637
         6        -0.1212     -0.1694      0.0078      0.0435      0.2862
         7         0.0207     -0.0366     -0.0170      0.0021      0.0127
         8         0.0410      0.0691     -0.0207      0.0069      0.0400
         9         0.0406     -0.0513      0.0128      0.0044      0.0243
        10        -0.1882     -0.0640      0.0149      0.0397      0.2138
 Ground to excited state transition magnetic dipole moments (Au):
       state          X           Y           Z
         1        -0.0094     -0.1002     -1.8137
         2        -0.0770     -0.0292     -0.0075
         3         0.0382     -0.0205     -0.6201
         4         0.0158     -0.0410     -0.7458
         5         0.0443      0.0942      0.5240
         6         0.0330      0.1470      1.1602
         7        -0.0343     -0.0888     -0.6577
         8        -0.0035     -0.0332     -0.4161
         9        -0.0212      0.0818      0.0835
        10        -0.0315      0.0786      2.0714
 Ground to excited state transition velocity quadrupole moments (Au):
       state          XX          YY          ZZ          XY          XZ          YZ
         1        -2.6053      2.6623     -0.1009      1.4937     -0.0406     -0.3911
         2        -0.8470      1.3089     -0.2715      0.6890     -0.1850     -0.0701
         3        -0.3715      0.2503     -0.0878      0.3292      0.1229     -0.2362
         4         0.3247      1.0596     -0.1571      0.7961     -0.0356     -0.1998
         5        -0.6806     -1.5769      0.1968     -1.1576      0.0948      0.2099
         6        -1.2206     -2.8180     -0.0117     -1.8355      0.0751      0.3376
         7        -0.4155      2.3272      0.1511      0.9838     -0.2083     -0.0020
         8         0.1881      1.0493     -0.0289      0.6957     -0.0316     -0.1945
         9         0.8520     -1.0798      0.0352     -0.0818      0.0337      0.0478
        10         2.1957     -2.7611      0.1016     -1.6098      0.1396      0.3425
 <0|del|b> * <b|rxdel|0> + <0|del|b> * <b|delr+rdel|0>
 Rotatory Strengths (R) in cgs (10**-40 erg-esu-cm/Gauss)
       state          XX          YY          ZZ    R(velocity)    E-M Angle
         1        -2.2421   -196.4082    384.5836     61.9777       87.73
         2        31.9915    131.2057   -135.9511      9.0820       77.72
         3       -64.5260   -122.6920    189.1500      0.6440       89.87
         4        -3.7153     16.4772    -19.7095     -2.3159       90.53
         5       -23.6034     63.4060   -133.4298    -31.2091       97.11
         6       -60.9610    -75.2797     -2.4949    -46.2452       94.67
         7       -32.4606     88.7400     33.4431     29.9075       62.99
         8       -18.1556     45.8678     10.2857     12.6660       79.74
         9        -7.0971      9.2479    -25.3257     -7.7250      120.30
        10        30.7906    -10.3802    161.0968     60.5024       85.59
 1/2[<0|r|b>*<b|rxdel|0> + (<0|rxdel|b>*<b|r|0>)*]
 Rotatory Strengths (R) in cgs (10**-40 erg-esu-cm/Gauss)
       state          XX          YY          ZZ     R(length)
         1       -22.4153    -98.3100    311.9369     63.7372
         2        66.0006    -38.5047      1.5672      9.6877
         3        40.8911    -17.3284    -26.7709     -1.0694
         4         3.6879    -43.0685     29.3259     -3.3516
         5         0.1693   -134.5588     43.7874    -30.2007
         6       -28.3054   -173.3398     65.4826    -45.3875
         7        -5.3219     22.0264     77.7321     31.4789
         8        -0.8854    -14.3743     31.2498      5.3300
         9        -5.1668    -25.6507      6.2811     -8.1788
        10        35.0812    -31.3792    179.6212     61.1077
  1/2[<0|del|b>*<b|r|0> + (<0|r|b>*<b|del|0>)*] (Au)
       state          X           Y           Z        Dip. S.   Osc.(frdel)
         1        -0.7927     -0.1354     -0.0041      0.9322      0.6215
         2        -0.1042     -0.2513     -0.0062      0.3617      0.2411
         3        -0.1834     -0.1119     -0.0002      0.2955      0.1970
         4        -0.0075     -0.1965     -0.0003      0.2043      0.1362
         5         0.0000     -0.3983     -0.0012      0.3996      0.2664
         6        -0.1471     -0.2825     -0.0006      0.4302      0.2868
         7        -0.0045     -0.0128     -0.0028      0.0202      0.0135
         8        -0.0146     -0.0423     -0.0022      0.0591      0.0394
         9        -0.0140     -0.0228     -0.0014      0.0381      0.0254
        10        -0.2960     -0.0361     -0.0018      0.3340      0.2227

 Excitation energies and oscillator strengths:
 
 Excited State   1:      Singlet-A      1.9093 eV  649.38 nm  f=0.6206  <S**2>=0.000
     319 -> 320        0.69778
     319 -> 321       -0.10708
 This state for optimization and/or second-order correction.
 Total Energy, E(TD-HF/TD-DFT) =  -4256.87786489    
 Copying the excited state density for this state as the 1-particle RhoCI density.
 
 Excited State   2:      Singlet-A      2.0019 eV  619.34 nm  f=0.2468  <S**2>=0.000
     318 -> 320        0.70067
 
 Excited State   3:      Singlet-A      2.1793 eV  568.92 nm  f=0.1986  <S**2>=0.000
     317 -> 320        0.69779
 
 Excited State   4:      Singlet-A      2.5528 eV  485.68 nm  f=0.1451  <S**2>=0.000
     316 -> 320        0.24648
     316 -> 321       -0.10788
     319 -> 320        0.10289
     319 -> 321        0.63931
 
 Excited State   5:      Singlet-A      2.6830 eV  462.12 nm  f=0.2691  <S**2>=0.000
     316 -> 320        0.39377
     318 -> 321        0.55244
     319 -> 321       -0.15441
 
 Excited State   6:      Singlet-A      2.7552 eV  449.99 nm  f=0.2874  <S**2>=0.000
     316 -> 320        0.48584
     317 -> 321        0.17026
     318 -> 321       -0.41689
     319 -> 321       -0.19988
 
 Excited State   7:      Singlet-A      2.9355 eV  422.36 nm  f=0.0143  <S**2>=0.000
     316 -> 320       -0.14318
     317 -> 321        0.67126
 
 Excited State   8:      Singlet-A      3.1230 eV  397.00 nm  f=0.0392  <S**2>=0.000
     309 -> 320        0.37403
     309 -> 321       -0.15502
     310 -> 320        0.39879
     310 -> 321       -0.15353
     311 -> 320        0.27740
     311 -> 321       -0.11279
     316 -> 320       -0.10361
 
 Excited State   9:      Singlet-A      3.3169 eV  373.79 nm  f=0.0265  <S**2>=0.000
     315 -> 320        0.63487
     319 -> 322        0.23995
 
 Excited State  10:      Singlet-A      3.3705 eV  367.85 nm  f=0.2319  <S**2>=0.000
     316 -> 321        0.60665
     319 -> 322        0.26872
     319 -> 323        0.11037
 SavETr:  write IOETrn=   770 NScale= 10 NData=  16 NLR=1 NState=   10 LETran=     190.
 Hyperfine terms turned off by default for NAtoms > 100.

 **********************************************************************

            Population analysis using the SCF Density.

 **********************************************************************

 Orbital symmetries:
       Occupied  (A) (A) (A) (A) (A) (A) (A) (A) (A) (A) (A) (A)
                 (A) (A) (A) (A) (A) (A) (A) (A) (A) (A) (A) (A)
                 (A) (A) (A) (A) (A) (A) (A) (A) (A) (A) (A) (A)
                 (A) (A) (A) (A) (A) (A) (A) (A) (A) (A) (A) (A)
                 (A) (A) (A) (A) (A) (A) (A) (A) (A) (A) (A) (A)
                 (A) (A) (A) (A) (A) (A) (A) (A) (A) (A) (A) (A)
                 (A) (A) (A) (A) (A) (A) (A) (A) (A) (A) (A) (A)
                 (A) (A) (A) (A) (A) (A) (A) (A) (A) (A) (A) (A)
                 (A) (A) (A) (A) (A) (A) (A) (A) (A) (A) (A) (A)
                 (A) (A) (A) (A) (A) (A) (A) (A) (A) (A) (A) (A)
                 (A) (A) (A) (A) (A) (A) (A) (A) (A) (A) (A) (A)
                 (A) (A) (A) (A) (A) (A) (A) (A) (A) (A) (A) (A)
                 (A) (A) (A) (A) (A) (A) (A) (A) (A) (A) (A) (A)
                 (A) (A) (A) (A) (A) (A) (A) (A) (A) (A) (A) (A)
                 (A) (A) (A) (A) (A) (A) (A) (A) (A) (A) (A) (A)
                 (A) (A) (A) (A) (A) (A) (A) (A) (A) (A) (A) (A)
                 (A) (A) (A) (A) (A) (A) (A) (A) (A) (A) (A) (A)
                 (A) (A) (A) (A) (A) (A) (A) (A) (A) (A) (A) (A)
                 (A) (A) (A) (A) (A) (A) (A) (A) (A) (A) (A) (A)
                 (A) (A) (A) (A) (A) (A) (A) (A) (A) (A) (A) (A)
                 (A) (A) (A) (A) (A) (A) (A) (A) (A) (A) (A) (A)
                 (A) (A) (A) (A) (A) (A) (A) (A) (A) (A) (A) (A)
                 (A) (A) (A) (A) (A) (A) (A) (A) (A) (A) (A) (A)
                 (A) (A) (A) (A) (A) (A) (A) (A) (A) (A) (A) (A)
                 (A) (A) (A) (A) (A) (A) (A) (A) (A) (A) (A) (A)
                 (A) (A) (A) (A) (A) (A) (A) (A) (A) (A) (A) (A)
                 (A) (A) (A) (A) (A) (A) (A)
       Virtual   (A) (A) (A) (A) (A) (A) (A) (A) (A) (A) (A) (A)
                 (A) (A) (A) (A) (A) (A) (A) (A) (A) (A) (A) (A)
                 (A) (A) (A) (A) (A) (A) (A) (A) (A) (A) (A) (A)
                 (A) (A) (A) (A) (A) (A) (A) (A) (A) (A) (A) (A)
                 (A) (A) (A) (A) (A) (A) (A) (A) (A) (A) (A) (A)
                 (A) (A) (A) (A) (A) (A) (A) (A) (A) (A) (A) (A)
                 (A) (A) (A) (A) (A) (A) (A) (A) (A) (A) (A) (A)
                 (A) (A) (A) (A) (A) (A) (A) (A) (A) (A) (A) (A)
                 (A) (A) (A) (A) (A) (A) (A) (A) (A) (A) (A) (A)
                 (A) (A) (A) (A) (A) (A) (A) (A) (A) (A) (A) (A)
                 (A) (A) (A) (A) (A) (A) (A) (A) (A) (A) (A) (A)
                 (A) (A) (A) (A) (A) (A) (A) (A) (A) (A) (A) (A)
                 (A) (A) (A) (A) (A) (A) (A) (A) (A) (A) (A) (A)
                 (A) (A) (A) (A) (A) (A) (A) (A) (A) (A) (A) (A)
                 (A) (A) (A) (A) (A) (A) (A) (A) (A) (A) (A) (A)
                 (A) (A) (A) (A) (A) (A) (A) (A) (A) (A) (A) (A)
                 (A) (A) (A) (A) (A) (A) (A) (A) (A) (A) (A) (A)
                 (A) (A) (A) (A) (A) (A) (A) (A) (A) (A) (A) (A)
                 (A) (A) (A) (A) (A) (A) (A) (A) (A) (A) (A) (A)
                 (A) (A) (A) (A) (A) (A) (A) (A) (A) (A) (A) (A)
                 (A) (A) (A) (A) (A) (A) (A) (A) (A) (A) (A) (A)
                 (A) (A) (A) (A) (A) (A) (A) (A) (A) (A) (A) (A)
                 (A) (A) (A) (A) (A) (A) (A) (A) (A) (A) (A) (A)
                 (A) (A) (A) (A) (A) (A) (A) (A) (A) (A) (A) (A)
                 (A) (A) (A) (A) (A) (A) (A) (A) (A) (A) (A) (A)
                 (A) (A) (A) (A) (A) (A) (A) (A) (A) (A) (A) (A)
                 (A) (A) (A) (A) (A) (A) (A) (A) (A) (A) (A) (A)
                 (A) (A) (A) (A) (A) (A) (A) (A) (A) (A) (A) (A)
                 (A) (A) (A) (A) (A) (A) (A) (A) (A) (A) (A) (A)
                 (A) (A) (A) (A) (A) (A) (A) (A) (A) (A) (A) (A)
                 (A) (A) (A) (A) (A) (A) (A) (A) (A) (A) (A) (A)
                 (A) (A) (A) (A) (A) (A) (A) (A) (A) (A) (A) (A)
                 (A) (A) (A) (A) (A) (A) (A) (A) (A) (A) (A) (A)
                 (A) (A) (A) (A) (A) (A) (A) (A) (A) (A) (A) (A)
                 (A) (A) (A) (A) (A) (A) (A) (A) (A) (A) (A) (A)
                 (A) (A) (A) (A) (A) (A) (A) (A) (A) (A) (A) (A)
                 (A) (A) (A) (A) (A) (A) (A) (A) (A) (A) (A) (A)
                 (A) (A) (A) (A) (A) (A) (A) (A) (A) (A) (A) (A)
                 (A) (A) (A) (A) (A) (A) (A) (A) (A) (A) (A) (A)
                 (A) (A) (A) (A) (A) (A) (A) (A) (A) (A) (A) (A)
                 (A) (A) (A) (A) (A) (A) (A) (A) (A) (A) (A) (A)
                 (A) (A) (A) (A) (A) (A) (A) (A) (A) (A) (A) (A)
                 (A) (A) (A) (A) (A) (A) (A) (A) (A) (A) (A) (A)
                 (A) (A) (A) (A) (A) (A) (A) (A) (A) (A) (A) (A)
                 (A) (A) (A) (A) (A) (A) (A) (A) (A) (A) (A) (A)
                 (A) (A) (A) (A) (A) (A) (A) (A) (A) (A) (A) (A)
                 (A) (A) (A) (A) (A) (A) (A) (A) (A) (A) (A) (A)
                 (A) (A) (A) (A) (A) (A) (A) (A) (A) (A) (A) (A)
                 (A) (A) (A) (A) (A) (A) (A) (A) (A) (A) (A) (A)
                 (A) (A) (A) (A) (A) (A) (A) (A) (A) (A) (A) (A)
                 (A) (A) (A) (A) (A) (A) (A) (A) (A) (A) (A) (A)
                 (A) (A) (A) (A) (A) (A) (A) (A) (A) (A) (A) (A)
                 (A) (A) (A) (A) (A) (A) (A) (A) (A) (A) (A) (A)
                 (A) (A) (A) (A) (A) (A) (A) (A) (A) (A) (A) (A)
                 (A) (A) (A) (A) (A) (A) (A) (A) (A) (A) (A) (A)
                 (A) (A) (A) (A) (A) (A) (A) (A) (A) (A) (A) (A)
                 (A) (A) (A) (A) (A) (A) (A) (A) (A) (A) (A) (A)
                 (A) (A) (A) (A) (A) (A) (A) (A) (A) (A) (A) (A)
                 (A) (A) (A) (A) (A) (A) (A) (A) (A) (A) (A) (A)
                 (A) (A) (A) (A) (A) (A) (A) (A) (A) (A) (A) (A)
                 (A) (A) (A) (A) (A) (A) (A) (A) (A) (A) (A) (A)
                 (A) (A) (A) (A) (A) (A) (A) (A) (A) (A) (A) (A)
                 (A) (A) (A) (A) (A) (A) (A) (A) (A) (A) (A) (A)
                 (A) (A) (A) (A) (A) (A) (A) (A) (A) (A) (A) (A)
                 (A) (A) (A) (A) (A) (A) (A) (A) (A) (A) (A) (A)
                 (A) (A) (A) (A) (A) (A) (A) (A) (A) (A) (A) (A)
                 (A) (A) (A) (A) (A) (A) (A) (A) (A) (A) (A) (A)
                 (A) (A) (A) (A) (A) (A) (A) (A) (A) (A) (A) (A)
                 (A) (A) (A) (A) (A) (A) (A) (A) (A) (A) (A) (A)
                 (A) (A) (A) (A) (A) (A) (A) (A) (A) (A) (A) (A)
                 (A) (A) (A) (A) (A) (A) (A) (A) (A) (A) (A) (A)
                 (A) (A) (A) (A) (A) (A) (A) (A) (A) (A) (A) (A)
                 (A) (A) (A) (A) (A) (A) (A) (A) (A) (A) (A) (A)
                 (A) (A) (A) (A) (A) (A) (A) (A) (A) (A) (A) (A)
                 (A) (A) (A) (A) (A) (A) (A) (A) (A) (A) (A) (A)
                 (A) (A) (A) (A) (A) (A) (A) (A) (A) (A) (A) (A)
                 (A) (A) (A) (A) (A) (A) (A) (A) (A) (A) (A) (A)
                 (A) (A) (A) (A) (A) (A) (A) (A) (A) (A) (A) (A)
                 (A) (A) (A) (A) (A) (A) (A) (A) (A) (A) (A) (A)
                 (A) (A) (A) (A) (A) (A) (A) (A) (A) (A) (A) (A)
                 (A) (A) (A) (A) (A) (A) (A) (A) (A) (A) (A) (A)
                 (A) (A) (A) (A) (A) (A) (A) (A) (A) (A) (A) (A)
                 (A) (A) (A) (A) (A) (A) (A) (A) (A) (A) (A) (A)
                 (A) (A) (A) (A) (A) (A) (A) (A) (A) (A) (A) (A)
                 (A) (A) (A) (A) (A) (A) (A) (A) (A) (A) (A) (A)
                 (A) (A) (A) (A) (A) (A) (A) (A) (A) (A) (A) (A)
                 (A) (A) (A) (A) (A) (A) (A) (A) (A) (A) (A) (A)
                 (A) (A) (A) (A) (A) (A) (A) (A) (A) (A) (A) (A)
                 (A) (A) (A) (A) (A) (A) (A) (A) (A) (A) (A) (A)
                 (A) (A) (A) (A) (A) (A) (A) (A) (A) (A) (A) (A)
                 (A) (A) (A) (A) (A) (A) (A) (A) (A) (A) (A) (A)
                 (A) (A) (A) (A) (A) (A) (A) (A) (A) (A) (A) (A)
                 (A) (A) (A) (A) (A) (A) (A) (A) (A) (A) (A) (A)
                 (A) (A) (A) (A) (A) (A) (A) (A) (A) (A) (A) (A)
                 (A) (A) (A) (A) (A) (A) (A) (A) (A) (A) (A) (A)
                 (A) (A) (A) (A) (A) (A) (A) (A) (A) (A) (A) (A)
                 (A) (A) (A) (A) (A) (A) (A) (A) (A) (A) (A) (A)
                 (A) (A) (A) (A) (A) (A) (A) (A) (A) (A) (A) (A)
                 (A) (A) (A) (A) (A) (A) (A) (A) (A) (A) (A) (A)
                 (A) (A) (A) (A) (A) (A) (A) (A) (A) (A) (A) (A)
                 (A) (A) (A) (A) (A) (A) (A) (A) (A) (A) (A) (A)
                 (A) (A) (A) (A) (A) (A) (A) (A) (A) (A) (A) (A)
                 (A) (A) (A) (A) (A) (A) (A) (A) (A) (A) (A) (A)
                 (A) (A) (A) (A) (A) (A) (A) (A) (A) (A) (A) (A)
                 (A) (A) (A) (A) (A) (A) (A) (A) (A) (A) (A) (A)
                 (A) (A) (A) (A) (A) (A) (A) (A) (A) (A) (A) (A)
                 (A) (A) (A) (A) (A) (A) (A) (A) (A) (A) (A) (A)
                 (A) (A) (A) (A) (A) (A) (A) (A) (A) (A) (A) (A)
                 (A) (A) (A) (A) (A) (A) (A) (A) (A) (A) (A) (A)
                 (A) (A) (A) (A) (A) (A) (A) (A) (A) (A) (A) (A)
                 (A) (A) (A) (A) (A) (A) (A) (A) (A) (A) (A) (A)
                 (A) (A) (A) (A) (A) (A) (A) (A) (A) (A) (A) (A)
                 (A) (A) (A) (A) (A) (A) (A) (A) (A) (A) (A) (A)
                 (A) (A) (A) (A) (A) (A) (A) (A) (A) (A) (A) (A)
                 (A) (A) (A) (A) (A) (A) (A) (A) (A) (A) (A) (A)
                 (A) (A) (A) (A) (A) (A) (A) (A) (A) (A) (A) (A)
                 (A) (A) (A) (A) (A) (A) (A) (A) (A) (A) (A) (A)
                 (A) (A) (A) (A) (A) (A) (A) (A) (A) (A) (A) (A)
                 (A) (A) (A) (A) (A) (A) (A) (A) (A) (A) (A) (A)
                 (A) (A) (A) (A) (A) (A) (A) (A) (A) (A) (A) (A)
                 (A) (A) (A) (A) (A) (A) (A) (A) (A) (A) (A) (A)
                 (A) (A) (A) (A) (A) (A) (A) (A) (A) (A) (A) (A)
                 (A) (A) (A) (A) (A) (A) (A) (A) (A) (A) (A) (A)
                 (A) (A) (A) (A) (A) (A) (A) (A) (A) (A) (A) (A)
                 (A) (A) (A) (A) (A) (A) (A) (A) (A) (A) (A) (A)
                 (A) (A) (A) (A) (A) (A) (A) (A) (A) (A) (A) (A)
                 (A) (A) (A) (A) (A) (A) (A) (A) (A) (A) (A) (A)
                 (A) (A) (A) (A) (A) (A) (A) (A) (A) (A) (A) (A)
                 (A) (A) (A) (A) (A) (A) (A) (A) (A) (A) (A) (A)
                 (A) (A) (A) (A) (A) (A) (A) (A) (A) (A) (A) (A)
                 (A) (A) (A) (A) (A) (A) (A) (A) (A) (A) (A) (A)
                 (A) (A) (A) (A) (A) (A) (A) (A) (A) (A) (A) (A)
                 (A) (A) (A) (A) (A) (A) (A) (A) (A) (A) (A) (A)
                 (A) (A) (A) (A) (A) (A) (A) (A) (A) (A) (A) (A)
                 (A) (A) (A) (A) (A) (A) (A) (A) (A) (A) (A) (A)
                 (A) (A) (A) (A) (A) (A) (A) (A) (A) (A) (A) (A)
                 (A) (A) (A) (A) (A) (A) (A) (A) (A) (A) (A) (A)
                 (A) (A) (A) (A) (A) (A) (A) (A) (A) (A) (A) (A)
                 (A) (A) (A) (A) (A) (A) (A) (A) (A) (A) (A) (A)
                 (A) (A) (A) (A) (A) (A) (A) (A) (A) (A) (A) (A)
                 (A) (A) (A) (A) (A) (A) (A)
 The electronic state is 1-A.
 Alpha  occ. eigenvalues --  -89.06000 -19.24461 -19.23787 -19.23736 -19.23687
 Alpha  occ. eigenvalues --  -19.23580 -19.23303 -19.23269 -19.18498 -14.41859
 Alpha  occ. eigenvalues --  -14.41565 -14.41276 -14.39012 -14.38873 -14.36469
 Alpha  occ. eigenvalues --  -10.35680 -10.29063 -10.28997 -10.28983 -10.28847
 Alpha  occ. eigenvalues --  -10.28571 -10.28557 -10.28364 -10.28143 -10.27970
 Alpha  occ. eigenvalues --  -10.27942 -10.27846 -10.27774 -10.27510 -10.27510
 Alpha  occ. eigenvalues --  -10.27475 -10.27403 -10.27249 -10.27061 -10.26916
 Alpha  occ. eigenvalues --  -10.26717 -10.26674 -10.26644 -10.26588 -10.26574
 Alpha  occ. eigenvalues --  -10.26545 -10.26509 -10.26287 -10.26164 -10.26139
 Alpha  occ. eigenvalues --  -10.25782 -10.24955 -10.24448 -10.24169 -10.23789
 Alpha  occ. eigenvalues --  -10.23333 -10.23252 -10.23248 -10.23245 -10.23212
 Alpha  occ. eigenvalues --  -10.23194 -10.23182 -10.23151 -10.23131 -10.23130
 Alpha  occ. eigenvalues --  -10.23120 -10.23104 -10.23100 -10.23057 -10.23031
 Alpha  occ. eigenvalues --  -10.22979 -10.22978 -10.22867 -10.22817 -10.22779
 Alpha  occ. eigenvalues --  -10.22755 -10.22729 -10.22725 -10.22718 -10.22693
 Alpha  occ. eigenvalues --  -10.22680 -10.22663 -10.22619 -10.22615 -10.22563
 Alpha  occ. eigenvalues --  -10.22436 -10.22399 -10.22388 -10.22299 -10.22286
 Alpha  occ. eigenvalues --  -10.22222 -10.22177 -10.22118 -10.22116 -10.21876
 Alpha  occ. eigenvalues --  -10.21836  -8.04371  -5.98024  -5.97654  -5.97391
 Alpha  occ. eigenvalues --   -1.13919  -1.10251  -1.10195  -1.10158  -1.10044
 Alpha  occ. eigenvalues --   -1.09769  -1.09744  -1.04606  -1.01302  -0.99867
 Alpha  occ. eigenvalues --   -0.99639  -0.99343  -0.94301  -0.92607  -0.92016
 Alpha  occ. eigenvalues --   -0.89724  -0.89004  -0.88941  -0.88893  -0.88581
 Alpha  occ. eigenvalues --   -0.88523  -0.88370  -0.87039  -0.86854  -0.86444
 Alpha  occ. eigenvalues --   -0.85075  -0.81336  -0.81268  -0.79508  -0.79410
 Alpha  occ. eigenvalues --   -0.79176  -0.79113  -0.79021  -0.78225  -0.78193
 Alpha  occ. eigenvalues --   -0.78062  -0.78018  -0.77849  -0.77740  -0.77586
 Alpha  occ. eigenvalues --   -0.77317  -0.77062  -0.76949  -0.76788  -0.76514
 Alpha  occ. eigenvalues --   -0.75666  -0.74593  -0.73887  -0.72926  -0.72845
 Alpha  occ. eigenvalues --   -0.72480  -0.71157  -0.71133  -0.70859  -0.69543
 Alpha  occ. eigenvalues --   -0.68075  -0.66666  -0.65651  -0.64837  -0.64710
 Alpha  occ. eigenvalues --   -0.64618  -0.64458  -0.64264  -0.64037  -0.63681
 Alpha  occ. eigenvalues --   -0.63506  -0.63338  -0.63155  -0.62735  -0.62191
 Alpha  occ. eigenvalues --   -0.61895  -0.61781  -0.61674  -0.61363  -0.60484
 Alpha  occ. eigenvalues --   -0.59497  -0.59125  -0.58693  -0.57881  -0.56598
 Alpha  occ. eigenvalues --   -0.56426  -0.56358  -0.56206  -0.56069  -0.56023
 Alpha  occ. eigenvalues --   -0.55761  -0.55532  -0.54869  -0.54690  -0.54537
 Alpha  occ. eigenvalues --   -0.53770  -0.53539  -0.53159  -0.52809  -0.52243
 Alpha  occ. eigenvalues --   -0.51376  -0.51254  -0.51033  -0.50919  -0.50373
 Alpha  occ. eigenvalues --   -0.50067  -0.50006  -0.49579  -0.49292  -0.49089
 Alpha  occ. eigenvalues --   -0.49051  -0.48978  -0.48890  -0.48620  -0.48586
 Alpha  occ. eigenvalues --   -0.48495  -0.48055  -0.47588  -0.47318  -0.47015
 Alpha  occ. eigenvalues --   -0.46909  -0.46897  -0.46818  -0.46744  -0.46509
 Alpha  occ. eigenvalues --   -0.46419  -0.46131  -0.45813  -0.45403  -0.45329
 Alpha  occ. eigenvalues --   -0.45285  -0.44971  -0.44765  -0.44645  -0.44535
 Alpha  occ. eigenvalues --   -0.44436  -0.44295  -0.44185  -0.44073  -0.44065
 Alpha  occ. eigenvalues --   -0.43970  -0.43721  -0.43579  -0.43534  -0.43467
 Alpha  occ. eigenvalues --   -0.43295  -0.43184  -0.43094  -0.43066  -0.42663
 Alpha  occ. eigenvalues --   -0.42515  -0.42418  -0.41784  -0.41458  -0.40923
 Alpha  occ. eigenvalues --   -0.40655  -0.40599  -0.40445  -0.40252  -0.40175
 Alpha  occ. eigenvalues --   -0.40152  -0.40129  -0.40048  -0.39935  -0.39745
 Alpha  occ. eigenvalues --   -0.39641  -0.39558  -0.39188  -0.38697  -0.38504
 Alpha  occ. eigenvalues --   -0.38425  -0.38216  -0.38132  -0.38050  -0.37802
 Alpha  occ. eigenvalues --   -0.37793  -0.37572  -0.37436  -0.37307  -0.36772
 Alpha  occ. eigenvalues --   -0.36545  -0.35950  -0.35779  -0.35359  -0.35294
 Alpha  occ. eigenvalues --   -0.35107  -0.34968  -0.34781  -0.34741  -0.34704
 Alpha  occ. eigenvalues --   -0.34630  -0.34554  -0.34486  -0.34436  -0.34358
 Alpha  occ. eigenvalues --   -0.34277  -0.34070  -0.33993  -0.33730  -0.33643
 Alpha  occ. eigenvalues --   -0.32519  -0.32122  -0.31186  -0.30976  -0.30320
 Alpha  occ. eigenvalues --   -0.29295  -0.27889  -0.27828  -0.27691  -0.27584
 Alpha  occ. eigenvalues --   -0.27336  -0.27251  -0.27169  -0.27053  -0.26811
 Alpha  occ. eigenvalues --   -0.26786  -0.26639  -0.25998  -0.25492  -0.25378
 Alpha  occ. eigenvalues --   -0.25247  -0.24603  -0.24508  -0.24148  -0.23843
 Alpha  occ. eigenvalues --   -0.21400  -0.19382  -0.18745  -0.18297
 Alpha virt. eigenvalues --   -0.09883  -0.07161  -0.03651  -0.02554  -0.02337
 Alpha virt. eigenvalues --   -0.02207  -0.01838  -0.00760  -0.00655  -0.00567
 Alpha virt. eigenvalues --   -0.00400  -0.00345  -0.00295  -0.00164   0.00051
 Alpha virt. eigenvalues --    0.00078   0.00163   0.00571   0.01201   0.01913
 Alpha virt. eigenvalues --    0.03131   0.03244   0.03774   0.03939   0.04481
 Alpha virt. eigenvalues --    0.04782   0.04922   0.05249   0.05404   0.05440
 Alpha virt. eigenvalues --    0.05769   0.05851   0.06014   0.06157   0.06262
 Alpha virt. eigenvalues --    0.06381   0.06839   0.07062   0.07756   0.07929
 Alpha virt. eigenvalues --    0.08018   0.08163   0.08418   0.08605   0.08752
 Alpha virt. eigenvalues --    0.08781   0.08897   0.09075   0.09195   0.09413
 Alpha virt. eigenvalues --    0.09739   0.09889   0.10035   0.10819   0.11074
 Alpha virt. eigenvalues --    0.11131   0.11437   0.11446   0.11536   0.11629
 Alpha virt. eigenvalues --    0.11670   0.11772   0.11818   0.11898   0.11933
 Alpha virt. eigenvalues --    0.12007   0.12056   0.12095   0.12104   0.12150
 Alpha virt. eigenvalues --    0.12186   0.12401   0.12448   0.12497   0.12643
 Alpha virt. eigenvalues --    0.12837   0.13124   0.13652   0.13867   0.13996
 Alpha virt. eigenvalues --    0.14107   0.14332   0.14439   0.14673   0.14734
 Alpha virt. eigenvalues --    0.14876   0.14912   0.14974   0.14999   0.15068
 Alpha virt. eigenvalues --    0.15207   0.15370   0.15619   0.15755   0.15856
 Alpha virt. eigenvalues --    0.15898   0.16202   0.16302   0.16469   0.16954
 Alpha virt. eigenvalues --    0.17371   0.17748   0.18087   0.18255   0.18328
 Alpha virt. eigenvalues --    0.18619   0.18794   0.18822   0.18960   0.19432
 Alpha virt. eigenvalues --    0.20204   0.21761   0.21876   0.21925   0.21960
 Alpha virt. eigenvalues --    0.22034   0.22114   0.22339   0.22381   0.23048
 Alpha virt. eigenvalues --    0.23427   0.23603   0.23905   0.24161   0.24328
 Alpha virt. eigenvalues --    0.24640   0.24801   0.24956   0.25017   0.25260
 Alpha virt. eigenvalues --    0.25416   0.26066   0.26263   0.26435   0.26824
 Alpha virt. eigenvalues --    0.26871   0.26979   0.27256   0.27332   0.27694
 Alpha virt. eigenvalues --    0.27906   0.28048   0.28728   0.28782   0.29055
 Alpha virt. eigenvalues --    0.29387   0.29446   0.29576   0.29902   0.30083
 Alpha virt. eigenvalues --    0.30512   0.30530   0.31477   0.31482   0.31503
 Alpha virt. eigenvalues --    0.31606   0.31670   0.31772   0.31925   0.31958
 Alpha virt. eigenvalues --    0.31994   0.32157   0.32186   0.32282   0.32361
 Alpha virt. eigenvalues --    0.32561   0.32635   0.32797   0.32882   0.33162
 Alpha virt. eigenvalues --    0.33368   0.33569   0.33772   0.33839   0.34111
 Alpha virt. eigenvalues --    0.34429   0.34517   0.34725   0.34881   0.35055
 Alpha virt. eigenvalues --    0.35182   0.35267   0.35906   0.36135   0.36508
 Alpha virt. eigenvalues --    0.37026   0.37090   0.37198   0.37353   0.37392
 Alpha virt. eigenvalues --    0.37520   0.37741   0.37837   0.37983   0.38303
 Alpha virt. eigenvalues --    0.38392   0.38463   0.38591   0.38661   0.38745
 Alpha virt. eigenvalues --    0.38917   0.39073   0.39123   0.39273   0.39486
 Alpha virt. eigenvalues --    0.39565   0.39648   0.39724   0.39861   0.39959
 Alpha virt. eigenvalues --    0.40075   0.40176   0.40240   0.40297   0.40413
 Alpha virt. eigenvalues --    0.40604   0.40691   0.40835   0.41115   0.41258
 Alpha virt. eigenvalues --    0.41392   0.41482   0.41671   0.41755   0.41927
 Alpha virt. eigenvalues --    0.42078   0.42157   0.42276   0.42312   0.42469
 Alpha virt. eigenvalues --    0.42503   0.42607   0.42825   0.42861   0.42948
 Alpha virt. eigenvalues --    0.43068   0.43189   0.43237   0.43377   0.43503
 Alpha virt. eigenvalues --    0.43604   0.43710   0.43733   0.43898   0.44041
 Alpha virt. eigenvalues --    0.44240   0.44331   0.44412   0.44445   0.44610
 Alpha virt. eigenvalues --    0.44730   0.44856   0.45021   0.45168   0.45333
 Alpha virt. eigenvalues --    0.45393   0.45612   0.45703   0.45836   0.45936
 Alpha virt. eigenvalues --    0.46120   0.46287   0.46348   0.46688   0.46845
 Alpha virt. eigenvalues --    0.46939   0.47280   0.47458   0.47480   0.47775
 Alpha virt. eigenvalues --    0.47839   0.48058   0.48221   0.48360   0.48641
 Alpha virt. eigenvalues --    0.48767   0.49077   0.49155   0.49278   0.49376
 Alpha virt. eigenvalues --    0.49593   0.49604   0.49646   0.49796   0.49893
 Alpha virt. eigenvalues --    0.50244   0.50265   0.50512   0.50807   0.50930
 Alpha virt. eigenvalues --    0.50957   0.51101   0.51201   0.51253   0.51332
 Alpha virt. eigenvalues --    0.51482   0.51773   0.51822   0.52138   0.52303
 Alpha virt. eigenvalues --    0.52479   0.52513   0.52695   0.52842   0.52927
 Alpha virt. eigenvalues --    0.53050   0.53246   0.53480   0.53821   0.54126
 Alpha virt. eigenvalues --    0.54794   0.54924   0.54978   0.55209   0.55299
 Alpha virt. eigenvalues --    0.55580   0.55762   0.55790   0.55975   0.56062
 Alpha virt. eigenvalues --    0.56349   0.56452   0.56556   0.56610   0.56854
 Alpha virt. eigenvalues --    0.56965   0.57132   0.57170   0.57385   0.57675
 Alpha virt. eigenvalues --    0.57804   0.58151   0.58429   0.58516   0.58579
 Alpha virt. eigenvalues --    0.58757   0.58857   0.58926   0.59072   0.59206
 Alpha virt. eigenvalues --    0.59480   0.59508   0.59770   0.59892   0.59900
 Alpha virt. eigenvalues --    0.59989   0.60170   0.60273   0.60377   0.60490
 Alpha virt. eigenvalues --    0.60926   0.61081   0.61138   0.61393   0.61558
 Alpha virt. eigenvalues --    0.61624   0.61773   0.61960   0.62007   0.62180
 Alpha virt. eigenvalues --    0.62295   0.62359   0.62447   0.62579   0.62771
 Alpha virt. eigenvalues --    0.62839   0.62898   0.63010   0.63027   0.63103
 Alpha virt. eigenvalues --    0.63238   0.63266   0.63420   0.63543   0.63619
 Alpha virt. eigenvalues --    0.63709   0.63917   0.63968   0.64094   0.64161
 Alpha virt. eigenvalues --    0.64340   0.64593   0.64709   0.64806   0.65016
 Alpha virt. eigenvalues --    0.65160   0.65387   0.65616   0.65773   0.65816
 Alpha virt. eigenvalues --    0.66020   0.66166   0.66280   0.66358   0.66502
 Alpha virt. eigenvalues --    0.66567   0.66755   0.67003   0.67179   0.67200
 Alpha virt. eigenvalues --    0.67348   0.67505   0.67612   0.67718   0.67886
 Alpha virt. eigenvalues --    0.67924   0.68207   0.68332   0.68417   0.68716
 Alpha virt. eigenvalues --    0.68931   0.69129   0.69462   0.69635   0.69879
 Alpha virt. eigenvalues --    0.70113   0.70327   0.70424   0.70613   0.70778
 Alpha virt. eigenvalues --    0.70968   0.71269   0.71378   0.71518   0.71665
 Alpha virt. eigenvalues --    0.71903   0.72002   0.72182   0.72284   0.72369
 Alpha virt. eigenvalues --    0.72667   0.72715   0.73225   0.73373   0.73796
 Alpha virt. eigenvalues --    0.74181   0.74989   0.75192   0.75413   0.75712
 Alpha virt. eigenvalues --    0.75814   0.75924   0.76194   0.76398   0.76454
 Alpha virt. eigenvalues --    0.77045   0.77120   0.77787   0.77956   0.78153
 Alpha virt. eigenvalues --    0.78451   0.79093   0.79422   0.79539   0.79629
 Alpha virt. eigenvalues --    0.79772   0.80126   0.80336   0.80601   0.80736
 Alpha virt. eigenvalues --    0.80844   0.80884   0.81058   0.81137   0.81268
 Alpha virt. eigenvalues --    0.81398   0.81501   0.81615   0.81696   0.81799
 Alpha virt. eigenvalues --    0.82026   0.82062   0.82115   0.82343   0.82768
 Alpha virt. eigenvalues --    0.82960   0.83179   0.83479   0.83674   0.83845
 Alpha virt. eigenvalues --    0.83984   0.84172   0.84214   0.84361   0.84678
 Alpha virt. eigenvalues --    0.84797   0.84891   0.84943   0.85226   0.85462
 Alpha virt. eigenvalues --    0.85688   0.85962   0.86128   0.86243   0.86284
 Alpha virt. eigenvalues --    0.86570   0.86866   0.87398   0.87822   0.88025
 Alpha virt. eigenvalues --    0.88138   0.88387   0.88620   0.88738   0.88867
 Alpha virt. eigenvalues --    0.89213   0.89361   0.89554   0.89815   0.89966
 Alpha virt. eigenvalues --    0.90448   0.90609   0.90821   0.90886   0.90907
 Alpha virt. eigenvalues --    0.91030   0.91236   0.91348   0.91608   0.91942
 Alpha virt. eigenvalues --    0.92098   0.92182   0.92651   0.92791   0.92956
 Alpha virt. eigenvalues --    0.93048   0.93255   0.93498   0.93595   0.93727
 Alpha virt. eigenvalues --    0.93968   0.94175   0.94376   0.94828   0.95245
 Alpha virt. eigenvalues --    0.95529   0.95696   0.95903   0.96260   0.96390
 Alpha virt. eigenvalues --    0.96506   0.96726   0.96868   0.96951   0.97457
 Alpha virt. eigenvalues --    0.97605   0.97656   0.97892   0.98191   0.98452
 Alpha virt. eigenvalues --    0.98715   0.98932   0.99259   0.99364   0.99729
 Alpha virt. eigenvalues --    0.99791   0.99854   1.00205   1.00409   1.00596
 Alpha virt. eigenvalues --    1.00905   1.01071   1.01116   1.01445   1.01647
 Alpha virt. eigenvalues --    1.02125   1.02238   1.02456   1.02713   1.03033
 Alpha virt. eigenvalues --    1.03193   1.03283   1.03352   1.03862   1.03957
 Alpha virt. eigenvalues --    1.04022   1.04343   1.04471   1.04555   1.04617
 Alpha virt. eigenvalues --    1.05130   1.05151   1.05436   1.05491   1.05599
 Alpha virt. eigenvalues --    1.05751   1.05936   1.05970   1.06231   1.06282
 Alpha virt. eigenvalues --    1.06875   1.07078   1.07391   1.07486   1.07746
 Alpha virt. eigenvalues --    1.07912   1.08214   1.08236   1.08538   1.08817
 Alpha virt. eigenvalues --    1.08849   1.09047   1.09273   1.09595   1.09747
 Alpha virt. eigenvalues --    1.09975   1.10187   1.10383   1.10484   1.10684
 Alpha virt. eigenvalues --    1.10881   1.11016   1.11097   1.11687   1.11759
 Alpha virt. eigenvalues --    1.12145   1.12348   1.12798   1.13112   1.13309
 Alpha virt. eigenvalues --    1.13508   1.13785   1.13855   1.13985   1.14102
 Alpha virt. eigenvalues --    1.14332   1.14661   1.14781   1.14997   1.15186
 Alpha virt. eigenvalues --    1.15740   1.15853   1.15949   1.15999   1.16146
 Alpha virt. eigenvalues --    1.16805   1.16944   1.17243   1.17454   1.17848
 Alpha virt. eigenvalues --    1.18400   1.18808   1.19679   1.20623   1.21248
 Alpha virt. eigenvalues --    1.21679   1.21897   1.22174   1.23081   1.23297
 Alpha virt. eigenvalues --    1.23664   1.23913   1.24089   1.24372   1.25201
 Alpha virt. eigenvalues --    1.25377   1.25434   1.25550   1.25590   1.25818
 Alpha virt. eigenvalues --    1.25899   1.25966   1.26093   1.26420   1.26931
 Alpha virt. eigenvalues --    1.27709   1.28002   1.29021   1.29186   1.29465
 Alpha virt. eigenvalues --    1.30083   1.30968   1.31346   1.32080   1.32310
 Alpha virt. eigenvalues --    1.32911   1.33094   1.33601   1.33811   1.33924
 Alpha virt. eigenvalues --    1.34360   1.35129   1.35321   1.35370   1.35674
 Alpha virt. eigenvalues --    1.36430   1.36651   1.36747   1.36956   1.37117
 Alpha virt. eigenvalues --    1.37729   1.37897   1.38102   1.38830   1.40628
 Alpha virt. eigenvalues --    1.40926   1.41064   1.41171   1.41442   1.41550
 Alpha virt. eigenvalues --    1.41747   1.41890   1.41969   1.42219   1.42390
 Alpha virt. eigenvalues --    1.43446   1.43561   1.43620   1.43649   1.43684
 Alpha virt. eigenvalues --    1.43715   1.43912   1.44006   1.44042   1.44101
 Alpha virt. eigenvalues --    1.44288   1.44364   1.44889   1.45005   1.45287
 Alpha virt. eigenvalues --    1.45394   1.45656   1.45773   1.46445   1.46627
 Alpha virt. eigenvalues --    1.46839   1.46970   1.46974   1.47084   1.47210
 Alpha virt. eigenvalues --    1.47361   1.47469   1.47531   1.47637   1.47883
 Alpha virt. eigenvalues --    1.48254   1.48427   1.49070   1.49259   1.49329
 Alpha virt. eigenvalues --    1.49662   1.49757   1.49817   1.49943   1.50071
 Alpha virt. eigenvalues --    1.50247   1.50395   1.50677   1.51091   1.51374
 Alpha virt. eigenvalues --    1.51462   1.51777   1.52559   1.52851   1.53081
 Alpha virt. eigenvalues --    1.53257   1.53573   1.53664   1.53803   1.54249
 Alpha virt. eigenvalues --    1.55024   1.55291   1.55411   1.55605   1.55692
 Alpha virt. eigenvalues --    1.55759   1.55908   1.56016   1.56153   1.56259
 Alpha virt. eigenvalues --    1.56535   1.56622   1.56821   1.56978   1.57141
 Alpha virt. eigenvalues --    1.57207   1.57318   1.57416   1.57576   1.57692
 Alpha virt. eigenvalues --    1.57752   1.57812   1.58059   1.58122   1.58247
 Alpha virt. eigenvalues --    1.58472   1.58682   1.58919   1.59092   1.59420
 Alpha virt. eigenvalues --    1.59478   1.59694   1.59785   1.59953   1.60080
 Alpha virt. eigenvalues --    1.60131   1.60209   1.60267   1.60327   1.60375
 Alpha virt. eigenvalues --    1.60509   1.60577   1.60685   1.60775   1.60961
 Alpha virt. eigenvalues --    1.61179   1.61297   1.61333   1.61413   1.61452
 Alpha virt. eigenvalues --    1.61749   1.62061   1.62376   1.62886   1.62979
 Alpha virt. eigenvalues --    1.63334   1.63641   1.64220   1.64438   1.64742
 Alpha virt. eigenvalues --    1.65092   1.65274   1.65732   1.65990   1.66321
 Alpha virt. eigenvalues --    1.66385   1.66673   1.66772   1.66863   1.67086
 Alpha virt. eigenvalues --    1.67231   1.67314   1.67385   1.67471   1.67578
 Alpha virt. eigenvalues --    1.67749   1.67848   1.68194   1.68320   1.68520
 Alpha virt. eigenvalues --    1.68604   1.68835   1.69180   1.69212   1.69902
 Alpha virt. eigenvalues --    1.69987   1.70136   1.70230   1.70470   1.70584
 Alpha virt. eigenvalues --    1.70736   1.71435   1.71478   1.71908   1.72049
 Alpha virt. eigenvalues --    1.72146   1.72323   1.72507   1.73073   1.73873
 Alpha virt. eigenvalues --    1.73972   1.74062   1.74201   1.74381   1.74742
 Alpha virt. eigenvalues --    1.74868   1.74901   1.75026   1.75265   1.75474
 Alpha virt. eigenvalues --    1.75827   1.76211   1.76461   1.76834   1.77433
 Alpha virt. eigenvalues --    1.77534   1.77658   1.77777   1.78146   1.78203
 Alpha virt. eigenvalues --    1.78258   1.78445   1.78581   1.78640   1.78739
 Alpha virt. eigenvalues --    1.78871   1.78978   1.79026   1.79214   1.79428
 Alpha virt. eigenvalues --    1.79754   1.79929   1.80406   1.81352   1.81482
 Alpha virt. eigenvalues --    1.81823   1.81885   1.82192   1.82840   1.82974
 Alpha virt. eigenvalues --    1.84346   1.84908   1.85822   1.86086   1.86346
 Alpha virt. eigenvalues --    1.86479   1.86650   1.86937   1.87031   1.87208
 Alpha virt. eigenvalues --    1.87424   1.87593   1.87897   1.88277   1.88426
 Alpha virt. eigenvalues --    1.88659   1.89010   1.89359   1.89521   1.89658
 Alpha virt. eigenvalues --    1.89767   1.90090   1.90458   1.90826   1.91072
 Alpha virt. eigenvalues --    1.91203   1.91285   1.91340   1.91728   1.91855
 Alpha virt. eigenvalues --    1.92136   1.92238   1.92299   1.92339   1.92526
 Alpha virt. eigenvalues --    1.92666   1.92948   1.93080   1.93240   1.93259
 Alpha virt. eigenvalues --    1.93501   1.93544   1.93631   1.94154   1.94267
 Alpha virt. eigenvalues --    1.94413   1.94512   1.94651   1.94738   1.94882
 Alpha virt. eigenvalues --    1.95167   1.95206   1.95727   1.95839   1.96011
 Alpha virt. eigenvalues --    1.96291   1.96460   1.96540   1.96681   1.96841
 Alpha virt. eigenvalues --    1.96962   1.97517   1.97700   1.97781   1.97911
 Alpha virt. eigenvalues --    1.98304   1.98397   1.98755   1.99265   1.99919
 Alpha virt. eigenvalues --    2.00053   2.00467   2.00598   2.00626   2.01170
 Alpha virt. eigenvalues --    2.01251   2.01713   2.01821   2.02001   2.02191
 Alpha virt. eigenvalues --    2.02220   2.02313   2.02429   2.02500   2.02572
 Alpha virt. eigenvalues --    2.02627   2.02806   2.02847   2.03186   2.03388
 Alpha virt. eigenvalues --    2.03545   2.03702   2.03751   2.03978   2.04263
 Alpha virt. eigenvalues --    2.04522   2.04752   2.04815   2.05199   2.06152
 Alpha virt. eigenvalues --    2.06404   2.06680   2.07044   2.07243   2.07746
 Alpha virt. eigenvalues --    2.07792   2.07932   2.08117   2.08254   2.08304
 Alpha virt. eigenvalues --    2.08623   2.08660   2.08765   2.09355   2.09429
 Alpha virt. eigenvalues --    2.09507   2.09633   2.09737   2.09837   2.09938
 Alpha virt. eigenvalues --    2.10030   2.10309   2.10411   2.10650   2.10943
 Alpha virt. eigenvalues --    2.11289   2.11825   2.12109   2.12256   2.12282
 Alpha virt. eigenvalues --    2.12744   2.12814   2.13152   2.13368   2.14110
 Alpha virt. eigenvalues --    2.14298   2.14734   2.15251   2.15649   2.16463
 Alpha virt. eigenvalues --    2.17135   2.18243   2.18859   2.19233   2.19645
 Alpha virt. eigenvalues --    2.20042   2.20074   2.20575   2.20848   2.21676
 Alpha virt. eigenvalues --    2.22174   2.22807   2.23387   2.24318   2.24538
 Alpha virt. eigenvalues --    2.24598   2.25026   2.25148   2.25869   2.27717
 Alpha virt. eigenvalues --    2.28078   2.28606   2.29154   2.29500   2.29704
 Alpha virt. eigenvalues --    2.29861   2.29956   2.30065   2.30497   2.31106
 Alpha virt. eigenvalues --    2.31583   2.32136   2.32311   2.32643   2.33472
 Alpha virt. eigenvalues --    2.34069   2.34175   2.34670   2.35030   2.35127
 Alpha virt. eigenvalues --    2.35199   2.35222   2.35382   2.35436   2.35531
 Alpha virt. eigenvalues --    2.35659   2.35718   2.35906   2.36067   2.36279
 Alpha virt. eigenvalues --    2.36407   2.36449   2.36653   2.36850   2.37289
 Alpha virt. eigenvalues --    2.37665   2.38051   2.38223   2.38483   2.38874
 Alpha virt. eigenvalues --    2.39075   2.39111   2.39604   2.39731   2.40009
[...]
 Alpha virt. eigenvalues --    2.75005   2.75229   2.75358   2.75414   2.75530
 Alpha virt. eigenvalues --    2.75751   2.76032   2.76384   2.76413   2.77207
 Alpha virt. eigenvalues --    2.77387   2.77529   2.77886   2.78224   2.78365
 Alpha virt. eigenvalues --    2.78633   2.78873   2.79162   2.79329   2.79547
 Alpha virt. eigenvalues --    2.79790   2.79895   2.79979   2.80244   2.80433
 Alpha virt. eigenvalues --    2.81456   2.81706   2.82550   2.82755   2.82967
 Alpha virt. eigenvalues --    2.83248   2.83766   2.84107   2.84543   2.84699
 Alpha virt. eigenvalues --    2.85478   2.85578   2.85880   2.86399   2.86504
 Alpha virt. eigenvalues --    2.86726   2.86840   2.87098   2.87142   2.87407
 Alpha virt. eigenvalues --    2.87760   2.88039   2.88508   2.89053   2.89840
 Alpha virt. eigenvalues --    2.89950   2.90287   2.90535   2.90809   2.91386
 Alpha virt. eigenvalues --    2.91685   2.92069   2.92749   2.92996   2.93223
 Alpha virt. eigenvalues --    2.93512   2.94561   2.95021   2.95117   2.95235
 Alpha virt. eigenvalues --    2.95294   2.95485   2.95626   2.95721   2.95880
 Alpha virt. eigenvalues --    2.96214   2.96604   2.96711   2.96804   2.97096
 Alpha virt. eigenvalues --    2.97480   2.97598   2.97830   2.98218   2.98485
 Alpha virt. eigenvalues --    2.98794   2.98953   2.99046   2.99483   3.00801
 Alpha virt. eigenvalues --    3.01080   3.01510   3.01753   3.02491   3.02736
 Alpha virt. eigenvalues --    3.03160   3.03258   3.03561   3.03748   3.04089
 Alpha virt. eigenvalues --    3.04420   3.04564   3.04613   3.04822   3.05359
 Alpha virt. eigenvalues --    3.05386   3.05425   3.05538   3.05675   3.05812
 Alpha virt. eigenvalues --    3.05870   3.05882   3.06126   3.06572   3.06792
 Alpha virt. eigenvalues --    3.08478   3.09395   3.09565   3.09593   3.09809
 Alpha virt. eigenvalues --    3.10400   3.10606   3.11036   3.11092   3.13184
 Alpha virt. eigenvalues --    3.13540   3.13681   3.14122   3.14213   3.14881
 Alpha virt. eigenvalues --    3.15047   3.15555   3.16240   3.16661   3.17312
 Alpha virt. eigenvalues --    3.18180   3.19101   3.19737   3.20374   3.20892
 Alpha virt. eigenvalues --    3.21386   3.22420   3.22575   3.22875   3.24961
 Alpha virt. eigenvalues --    3.25066   3.25177   3.25321   3.25346   3.25413
 Alpha virt. eigenvalues --    3.25540   3.25654   3.25779   3.26090   3.26682
 Alpha virt. eigenvalues --    3.27172   3.28977   3.30582   3.32050   3.32888
 Alpha virt. eigenvalues --    3.33816   3.34324   3.34439   3.34973   3.35124
 Alpha virt. eigenvalues --    3.35193   3.35507   3.36505   3.37226   3.37272
 Alpha virt. eigenvalues --    3.37380   3.37857   3.38053   3.38427   3.38839
 Alpha virt. eigenvalues --    3.39778   3.40130   3.40408   3.40777   3.40933
 Alpha virt. eigenvalues --    3.41168   3.41744   3.41829   3.42123   3.42285
 Alpha virt. eigenvalues --    3.42833   3.43095   3.43598   3.44322   3.44451
 Alpha virt. eigenvalues --    3.45029   3.47530   3.47786   3.48417   3.49055
 Alpha virt. eigenvalues --    3.49152   3.49592   3.50376   3.51431   3.51817
 Alpha virt. eigenvalues --    3.52126   3.52273   3.52682   3.53200   3.53378
 Alpha virt. eigenvalues --    3.53656   3.53714   3.54194   3.54685   3.55571
 Alpha virt. eigenvalues --    3.56196   3.57385   3.58032   3.58735   3.58839
 Alpha virt. eigenvalues --    3.59269   3.59352   3.59451   3.59880   3.60069
 Alpha virt. eigenvalues --    3.61413   3.62411   3.62976   3.63052   3.63620
 Alpha virt. eigenvalues --    3.63691   3.64073   3.64243   3.64308   3.64583
 Alpha virt. eigenvalues --    3.64727   3.65517   3.70652   3.72174   3.76169
 Alpha virt. eigenvalues --    3.77537   3.77547   3.77549   3.77660   3.77725
 Alpha virt. eigenvalues --    3.77989   3.78031   3.80757   3.80815   3.81179
 Alpha virt. eigenvalues --    3.81346   3.81421   3.81789   3.83573   3.89466
 Alpha virt. eigenvalues --    3.89515   3.89698   3.89937   3.90146   3.90346
 Alpha virt. eigenvalues --    3.91591   3.92313   3.93354   3.96682   3.98749
 Alpha virt. eigenvalues --    3.99471   3.99563   3.99882   4.00155   4.00306
 Alpha virt. eigenvalues --    4.00403   4.00755   4.01944   4.02869   4.03062
 Alpha virt. eigenvalues --    4.03338   4.04723   4.06067   4.06187   4.07124
 Alpha virt. eigenvalues --    4.08235   4.08272   4.08441   4.08543   4.08728
 Alpha virt. eigenvalues --    4.08885   4.09734   4.13125   4.13168   4.13404
 Alpha virt. eigenvalues --    4.13506   4.13565   4.13744   4.13999   4.14059
 Alpha virt. eigenvalues --    4.14465   4.14625   4.15234   4.15385   4.15677
 Alpha virt. eigenvalues --    4.16701   4.17011   4.17270   4.17548   4.19264
 Alpha virt. eigenvalues --    4.19607   4.20103   4.20281   4.20503   4.20607
 Alpha virt. eigenvalues --    4.20852   4.21261   4.21750   4.22710   4.22839
 Alpha virt. eigenvalues --    4.23071   4.23357   4.26076   4.34626   4.47857
 Alpha virt. eigenvalues --    4.52827   4.54419   4.56982   4.60169   4.73699
 Alpha virt. eigenvalues --    4.83533   4.86963   4.87022   4.87048   4.87096
 Alpha virt. eigenvalues --    4.87170   4.87240   4.87477   4.87502   4.87560
 Alpha virt. eigenvalues --    4.87658   4.93629   4.93667   4.93758   4.93856
 Alpha virt. eigenvalues --    4.94136   4.94153   4.95150   5.08103   5.08313
 Alpha virt. eigenvalues --    5.08357   5.08660   5.10304   5.16275   5.17345
 Alpha virt. eigenvalues --    5.19335   5.31732   5.31757   5.31870   5.31974
 Alpha virt. eigenvalues --    5.32217   5.32268   5.33052   5.42774   5.64143
 Alpha virt. eigenvalues --    5.80494   5.80534   5.80916   5.80950   5.80970
 Alpha virt. eigenvalues --    5.81371   5.81738   7.85647  17.29312  17.59436
 Alpha virt. eigenvalues --   17.63526  23.54421  23.57504  23.58156  23.58613
 Alpha virt. eigenvalues --   23.62682  23.62740  23.63143  23.64987  23.67029
 Alpha virt. eigenvalues --   23.72572  23.74841  23.81882  23.89739  23.92023
 Alpha virt. eigenvalues --   23.92584  23.96075  23.96099  23.96207  23.96274
 Alpha virt. eigenvalues --   23.96529  23.96574  23.99664  23.99780  24.00080
 Alpha virt. eigenvalues --   24.00141  24.00350  24.00406  24.00787  24.01041
 Alpha virt. eigenvalues --   24.01939  24.02559  24.02878  24.02998  24.03248
 Alpha virt. eigenvalues --   24.03288  24.03480  24.03596  24.03604  24.03729
 Alpha virt. eigenvalues --   24.03969  24.04119  24.05261  24.09719  24.10398
 Alpha virt. eigenvalues --   24.12003  24.13949  24.13975  24.14135  24.14289
 Alpha virt. eigenvalues --   24.14514  24.14536  24.14662  24.14803  24.15098
 Alpha virt. eigenvalues --   24.21146  24.21188  24.21603  24.21725  24.21805
 Alpha virt. eigenvalues --   24.22147  24.22895  24.22966  24.23423  24.23633
 Alpha virt. eigenvalues --   24.24265  24.27988  24.28049  24.28053  24.28166
 Alpha virt. eigenvalues --   24.28453  24.28601  24.28730  24.28885  24.29241
 Alpha virt. eigenvalues --   24.29476  24.55735  35.72086  35.76272  35.76399
 Alpha virt. eigenvalues --   35.76636  35.83370  35.96445  49.99110  50.04697
 Alpha virt. eigenvalues --   50.04741  50.04812  50.04907  50.05170  50.05234
 Alpha virt. eigenvalues --   50.14422 189.16874
          Condensed to atoms (all electrons):
 Mulliken charges:
               1
     1  N   -0.550155
     2  C    0.199355
     3  C   -0.126843
     4  C   -0.114204
     5  C    0.007747
     6  C   -0.020912
     7  C   -0.127278
     8  C    0.052886
     9  C   -0.067967
    10  C   -0.137129
    11  C    0.180547
    12  C   -0.098776
    13  C   -0.067006
    14  C    0.058561
    15  C   -0.066765
    16  C   -0.096133
    17  C    0.180457
    18  C   -0.139735
    19  C   -0.073314
    20  H    0.129827
    21  H    0.109522
    22  C   -0.328110
    23  H    0.135062
    24  H    0.129527
    25  H    0.120816
    26  H    0.121671
    27  O   -0.359257
    28  H    0.116664
    29  H    0.117262
    30  H    0.122597
    31  H    0.118711
    32  O   -0.358517
    33  H    0.120741
    34  H    0.117271
    35  C    0.234147
    36  C    0.255163
    37  C   -0.358673
    38  S    0.400736
    39  C    0.034197
    40  C   -0.118939
    41  C   -0.073836
    42  C   -0.101497
    43  C   -0.055229
    44  C   -0.031710
    45  C    0.060821
    46  C   -0.223837
    47  C    0.482242
    48  O   -0.358046
    49  O   -0.334952
    50  N   -0.401110
    51  N   -0.417053
    52  H    0.109793
    53  H    0.102874
    54  H    0.135211
    55  H    0.150809
    56  H    0.134003
    57  C    0.102733
    58  H    0.260950
    59  N   -0.285366
    60  C    0.172759
    61  C    0.194537
    62  C   -0.184561
    63  C   -0.040063
    64  C   -0.037891
    65  C   -0.186395
    66  C   -0.037277
    67  C   -0.113042
    68  C    0.199828
    69  C   -0.116953
    70  C   -0.112407
    71  C    0.193054
    72  C   -0.117159
    73  C   -0.038047
    74  H    0.110591
    75  H    0.133998
    76  H    0.129543
    77  H    0.128051
    78  H    0.130128
    79  H    0.109500
    80  C   -0.178031
    81  C   -0.177844
    82  H    0.144266
    83  H    0.127156
    84  H    0.126734
    85  H    0.126842
    86  H    0.127005
    87  H    0.143500
    88  N   -0.549377
    89  C   -0.064287
    90  C    0.046106
    91  C   -0.061776
    92  C   -0.097415
    93  C    0.181285
    94  C   -0.137323
    95  H    0.120177
    96  H    0.117363
    97  H    0.115813
    98  O   -0.358322
    99  H    0.118142
   100  C   -0.070108
   101  C    0.053922
   102  C   -0.062884
   103  C   -0.096456
   104  C    0.180320
   105  C   -0.140389
   106  H    0.123617
   107  H    0.115292
   108  O   -0.358837
   109  H    0.118717
   110  C   -0.177672
   111  H    0.143722
   112  H    0.125117
   113  H    0.127721
   114  N   -0.552345
   115  C   -0.067069
   116  C    0.052202
   117  C   -0.067558
   118  C   -0.137773
   119  C    0.179949
   120  C   -0.099467
   121  H    0.116345
   122  H    0.119998
   123  H    0.116897
   124  O   -0.359585
   125  H    0.120956
   126  C   -0.073116
   127  C    0.060990
   128  C   -0.067064
   129  C   -0.096515
   130  C    0.179819
   131  C   -0.139582
   132  H    0.120168
   133  H    0.120640
   134  H    0.116286
   135  O   -0.359164
   136  H    0.117717
   137  C   -0.177568
   138  C   -0.177884
   139  H    0.143553
   140  H    0.126180
   141  H    0.126712
   142  H    0.126213
   143  H    0.127104
   144  H    0.143656
   145  H    0.119870
   146  C   -0.177802
   147  H    0.143487
   148  H    0.126175
   149  H    0.126860
   150  H    0.119672
   151  H    0.120208
 Sum of Mulliken charges =  -0.00000
 Mulliken charges with hydrogens summed into heavy atoms:
               1
     1  N   -0.550155
     2  C    0.199355
     3  C    0.002984
     4  C   -0.004681
     5  C    0.007747
     6  C    0.114149
     7  C    0.002250
     8  C    0.052886
     9  C    0.052849
    10  C   -0.015458
    11  C    0.180547
    12  C    0.017888
    13  C    0.050256
    14  C    0.058561
    15  C    0.055832
    16  C    0.022578
    17  C    0.180457
    18  C   -0.018995
    19  C    0.043957
    22  C   -0.328110
    27  O   -0.359257
    32  O   -0.358517
    35  C    0.234147
    36  C    0.255163
    37  C   -0.358673
    38  S    0.400736
    39  C    0.034197
    40  C   -0.009146
    41  C    0.029038
    42  C   -0.101497
    43  C    0.079982
    44  C    0.119099
    45  C    0.194824
    46  C   -0.223837
    47  C    0.482242
    48  O   -0.358046
    49  O   -0.074002
    50  N   -0.401110
    51  N   -0.417053
    57  C    0.102733
    59  N   -0.285366
    60  C    0.172759
    61  C    0.194537
    62  C   -0.184561
    63  C    0.079609
    64  C    0.082317
    65  C   -0.186395
    66  C    0.073314
    67  C    0.020956
    68  C    0.199828
    69  C    0.012591
    70  C    0.015644
    71  C    0.193054
    72  C    0.012969
    73  C    0.071452
    80  C    0.220125
    81  C    0.219503
    88  N   -0.549377
    89  C    0.051525
    90  C    0.046106
    91  C    0.055586
    92  C    0.020727
    93  C    0.181285
    94  C   -0.017146
    98  O   -0.358322
   100  C    0.045184
   101  C    0.053922
   102  C    0.060733
   103  C    0.022262
   104  C    0.180320
   105  C   -0.020520
   108  O   -0.358837
   110  C    0.218888
   114  N   -0.552345
   115  C    0.049828
   116  C    0.052202
   117  C    0.052440
   118  C   -0.016817
   119  C    0.179949
   120  C    0.016877
   124  O   -0.359585
   126  C    0.043170
   127  C    0.060990
   128  C    0.053575
   129  C    0.021202
   130  C    0.179819
   131  C   -0.019414
   135  O   -0.359164
   137  C    0.218877
   138  C    0.219088
   146  C    0.218719
 Electronic spatial extent (au):  <R**2>=         153761.7511
 Charge=              0.0000 electrons
 Dipole moment (field-independent basis, Debye):
    X=             -7.0127    Y=            -10.0520    Z=             -3.7441  Tot=             12.8156
 Quadrupole moment (field-independent basis, Debye-Ang):
   XX=           -447.7393   YY=           -511.6700   ZZ=           -477.0832
   XY=            -50.8963   XZ=              6.0037   YZ=              8.7956
 Traceless Quadrupole moment (field-independent basis, Debye-Ang):
   XX=             31.0915   YY=            -32.8391   ZZ=              1.7476
   XY=            -50.8963   XZ=              6.0037   YZ=              8.7956
 Octapole moment (field-independent basis, Debye-Ang**2):
  XXX=           -776.2459  YYY=           -612.1978  ZZZ=           -251.8619  XYY=           -294.3228
  XXY=           -129.6581  XXZ=            -53.8695  XZZ=             73.1394  YZZ=           -299.4924
  YYZ=             78.6589  XYZ=           -101.6839
 Hexadecapole moment (field-independent basis, Debye-Ang**3):
 XXXX=        -100540.6579 YYYY=         -72275.8842 ZZZZ=         -16077.0927 XXXY=          -6306.6417
 XXXZ=           -728.1475 YYYX=           1400.0859 YYYZ=           -715.8369 ZZZX=            401.6329
 ZZZY=           1030.2256 XXYY=         -28652.0098 XXZZ=         -18894.2720 YYZZ=         -13902.4417
 XXYZ=            135.2447 YYXZ=            -96.9398 ZZXY=           -274.2527
 N-N= 1.437012586553D+04 E-N=-3.867780589566D+04  KE= 4.241182949315D+03
 Unable to Open any file for archive entry.
 1\1\GINC-CN077\SP\RPBE1PBE TD-FC\6-311G(d,p)\C76H60N6O8S1\R2532\29-Jul
 -2021\0\\#N TD(NStates=10) PBE1PBE/6-311G(d,p)\\C25H20ON4\\0,1\N,0,-7.
 909998,1.253969,0.142774\C,0,-6.574396,1.683095,0.071958\C,0,-6.224716
 ,3.020085,0.336904\C,0,-4.905762,3.432674,0.271831\C,0,-3.864764,2.547
 807,-0.070616\C,0,-4.223248,1.209454,-0.333163\C,0,-5.539841,0.789367,
 -0.261587\C,0,-8.380227,0.190077,-0.684328\C,0,-8.139772,0.186767,-2.0
 58668\C,0,-8.603813,-0.849372,-2.868563\C,0,-9.342969,-1.893833,-2.307
 784\C,0,-9.597928,-1.88973,-0.930465\C,0,-9.11611,-0.867613,-0.130167\
 C,0,-8.839962,1.896087,1.014106\C,0,-8.530097,2.104237,2.367058\C,0,-9
 .438078,2.716094,3.214291\C,0,-10.693327,3.119209,2.739834\C,0,-11.016
 552,2.904664,1.398167\C,0,-10.088232,2.306347,0.54633\H,0,-6.995209,3.
 733982,0.597669\H,0,-4.680164,4.468964,0.498303\C,0,-2.48484,2.999872,
 -0.162535\H,0,-3.447475,0.499094,-0.580148\H,0,-5.776883,-0.24727,-0.4
 64487\H,0,-7.577801,0.999546,-2.503043\H,0,-8.394282,-0.819678,-3.9293
 04\O,0,-9.85419,-2.949249,-3.004504\H,0,-10.167946,-2.708999,-0.509386
 \H,0,-9.311809,-0.878149,0.935373\H,0,-7.568412,1.783124,2.749042\H,0,
 -9.205337,2.879494,4.259556\O,0,-11.517579,3.699883,3.657963\H,0,-11.9
 76525,3.204572,0.999999\H,0,-10.343805,2.149938,-0.494819\C,0,-1.28290
 6,2.275618,-0.14562\C,0,-0.106285,3.094768,-0.254457\C,0,-0.377809,4.4
 65497,-0.378134\S,0,-2.112078,4.686524,-0.348304\C,0,0.510252,5.603729
 ,-0.504058\C,0,0.00905,6.90171,-0.752363\C,0,0.855298,7.984156,-0.8675
 19\C,0,2.256297,7.847595,-0.747145\C,0,2.757878,6.550732,-0.496866\C,0
 ,1.913568,5.464646,-0.378821\C,0,3.04922,9.041705,-0.889289\C,0,4.3953
 02,9.263865,-0.849832\C,0,4.85372,10.666798,-1.041589\O,0,4.127155,11.
 615023,-1.227708\O,0,6.198576,10.777918,-0.985469\N,0,-1.180821,0.9241
 15,-0.077108\N,0,1.127368,2.531332,-0.177907\H,0,-1.057401,7.059955,-0
 .863452\H,0,0.437961,8.966785,-1.060452\H,0,3.821422,6.390273,-0.38893
 6\H,0,2.321048,4.484156,-0.181458\H,0,2.480519,9.951504,-1.063693\C,0,
 5.380494,8.258469,-0.643924\H,0,6.401526,11.715065,-1.118375\N,0,6.178
 366,7.437573,-0.477745\C,0,0.017807,0.382125,-0.067225\C,0,1.218367,1.
 22456,-0.043972\C,0,0.056625,-1.0994,-0.126094\C,0,0.95654,-1.795424,-
 0.945936\C,0,2.863736,-0.298821,1.121652\C,0,2.584582,0.69389,0.170991
 \C,0,3.670141,1.260211,-0.515054\C,0,4.970473,0.843827,-0.283801\C,0,5
 .246095,-0.152584,0.671381\C,0,4.162712,-0.711566,1.373495\C,0,0.91923
 4,-3.177455,-1.048123\C,0,-0.022731,-3.92877,-0.323172\C,0,-0.932293,-
 3.234188,0.494408\C,0,-0.893412,-1.851338,0.580366\H,0,3.481502,2.0471
 83,-1.234934\H,0,5.785583,1.299183,-0.831124\H,0,4.345649,-1.475231,2.
 118017\H,0,1.626466,-3.684753,-1.691361\H,0,-1.675201,-3.785834,1.0561
 55\H,0,-1.616368,-1.332629,1.198018\C,0,-12.804301,4.12765,3.235893\C,
 0,-9.635946,-3.002584,-4.406606\H,0,-13.281069,4.551523,4.118122\H,0,-
 12.737793,4.895873,2.457164\H,0,-13.406274,3.289106,2.867632\H,0,-10.0
 8023,-2.140066,-4.916237\H,0,-8.567796,-3.05471,-4.646325\H,0,-10.1252
 73,-3.912775,-4.749452\N,0,6.563324,-0.570972,0.920009\C,0,7.321587,-1
 .100438,-1.356308\C,0,7.553652,-0.523181,-0.107812\C,0,8.792325,0.0907
 31,0.127426\C,0,9.765096,0.120671,-0.857495\C,0,9.521054,-0.447919,-2.
 114088\C,0,8.288091,-1.056718,-2.360896\H,0,8.070818,-1.509849,-3.3187
 08\H,0,8.986667,0.543822,1.092135\H,0,6.371857,-1.584646,-1.550533\O,0
 ,10.539567,-0.35597,-3.01643\H,0,10.723176,0.595135,-0.683532\C,0,7.63
 6035,-2.272704,2.322719\C,0,6.944038,-1.068002,2.202916\C,0,6.655859,-
 0.341124,3.36828\C,0,7.036569,-0.818062,4.610975\C,0,7.73631,-2.026623
 ,4.724127\C,0,8.041139,-2.750216,3.569198\H,0,6.128406,0.602131,3.2908
 72\H,0,7.86971,-2.842158,1.431142\O,0,8.073392,-2.402074,5.991536\H,0,
 6.818245,-0.261965,5.51458\C,0,10.345412,-0.90155,-4.312771\H,0,11.267
 56,-0.707872,-4.85825\H,0,10.170051,-1.98276,-4.272741\H,0,9.510267,-0
 .417634,-4.831847\N,0,-0.054765,-5.332532,-0.413582\C,0,1.279144,-7.05
 2159,-1.552673\C,0,0.357301,-5.996338,-1.607602\C,0,-0.1548,-5.623844,
 -2.850921\C,0,0.249857,-6.268547,-4.019704\C,0,1.164996,-7.321932,-3.9
 52753\C,0,1.670346,-7.711439,-2.705973\H,0,2.381259,-8.528037,-2.67023
 4\H,0,-0.872866,-4.814547,-2.909635\H,0,1.684172,-7.354748,-0.594439\O
 ,0,1.623475,-8.02686,-5.027256\H,0,-0.165465,-5.948922,-4.965976\C,0,-
 1.419636,-7.151827,0.502168\C,0,-0.491734,-6.127068,0.687818\C,0,0.021
 807,-5.915156,1.976704\C,0,-0.394468,-6.69571,3.041737\C,0,-1.321505,-
 7.727857,2.846828\C,0,-1.828151,-7.956576,1.565756\H,0,-2.545492,-8.74
 4915,1.381486\H,0,0.749583,-5.12893,2.137603\H,0,-1.823169,-7.330594,-
 0.487291\O,0,-1.656472,-8.444559,3.95822\H,0,-0.002626,-6.536135,4.038
 974\C,0,1.150371,-7.674134,-6.318622\C,0,-2.597563,-9.499139,3.822964\
 H,0,1.647125,-8.350299,-7.01253\H,0,0.065496,-7.806402,-6.400696\H,0,1
 .409607,-6.64027,-6.573849\H,0,-2.236195,-10.276247,3.139725\H,0,-3.56
 7841,-9.13012,3.47157\H,0,-2.714414,-9.923285,4.818897\H,0,8.581223,-3
 .685783,3.622832\C,0,8.785842,-3.617345,6.168906\H,0,8.94659,-3.714229
 ,7.241391\H,0,8.209166,-4.477954,5.811088\H,0,9.755735,-3.593587,5.659
 081\H,0,1.697901,-1.250975,-1.517365\H,0,2.056105,-0.752177,1.682584\\
 Version=ES64L-G16RevC.01\State=1-A\HF=-4256.9480294\RMSD=3.427e-09\PG=
 C01 [X(C76H60N6O8S1)]\\@
 The archive entry for this job was punched.


 TIME GOES, YOU SAY?  AH NO!
 ALAS, TIME STAYS, WE GO.
    -- A. DOBSON (1840-1921)
 Job cpu time:       0 days 14 hours 46 minutes 13.6 seconds.
 Elapsed time:       0 days 14 hours 46 minutes 20.8 seconds.
 File lengths (MBytes):  RWF=  24296 Int=      0 D2E=      0 Chk=   1506 Scr=      1
 Normal termination of Gaussian 16 at Thu Jul 29 00:07:30 2021.
