 Entering Gaussian System, Link 0=/usr/local/apps//g09/g09
 Input=mex.com
 Output=mex.out
 Initial command:
 /usr/local/apps//g09/l1.exe "/tmp/bnp.468224.sequoia/Gau-15944.inp" -scrdir="/tmp/bnp.468224.sequoia/"
 Entering Link 1 = /usr/local/apps//g09/l1.exe PID=     15945.
  
 Copyright (c) 1988,1990,1992,1993,1995,1998,2003,2009,2013,
            Gaussian, Inc.  All Rights Reserved.
  
 This is part of the Gaussian(R) 09 program.  It is based on
 the Gaussian(R) 03 system (copyright 2003, Gaussian, Inc.),
 the Gaussian(R) 98 system (copyright 1998, Gaussian, Inc.),
 the Gaussian(R) 94 system (copyright 1995, Gaussian, Inc.),
 the Gaussian 92(TM) system (copyright 1992, Gaussian, Inc.),
 the Gaussian 90(TM) system (copyright 1990, Gaussian, Inc.),
 the Gaussian 88(TM) system (copyright 1988, Gaussian, Inc.),
 the Gaussian 86(TM) system (copyright 1986, Carnegie Mellon
 University), and the Gaussian 82(TM) system (copyright 1983,
 Carnegie Mellon University). Gaussian is a federally registered
 trademark of Gaussian, Inc.
  
 This software contains proprietary and confidential information,
 including trade secrets, belonging to Gaussian, Inc.
  
 This software is provided under written license and may be
 used, copied, transmitted, or stored only in accord with that
 written license.
  
 The following legend is applicable only to US Government
 contracts under FAR:
  
                    RESTRICTED RIGHTS LEGEND
  
 Use, reproduction and disclosure by the US Government is
 subject to restrictions as set forth in subparagraphs (a)
 and (c) of the Commercial Computer Software - Restricted
 Rights clause in FAR 52.227-19.
  
 Gaussian, Inc.
 340 Quinnipiac St., Bldg. 40, Wallingford CT 06492
  
  
 ---------------------------------------------------------------
 Warning -- This program may not be used in any manner that
 competes with the business of Gaussian, Inc. or will provide
 assistance to any competitor of Gaussian, Inc.  The licensee
 of this program is prohibited from giving any competitor of
 Gaussian, Inc. access to this program.  By using this program,
 the user acknowledges that Gaussian, Inc. is engaged in the
 business of creating and licensing software in the field of
 computational chemistry and represents and warrants to the
 licensee that it is not a competitor of Gaussian, Inc. and that
 it will not use this program in any manner prohibited above.
 ---------------------------------------------------------------
  

 Cite this work as:
 Gaussian 09, Revision D.01,
 M. J. Frisch, G. W. Trucks, H. B. Schlegel, G. E. Scuseria, 
 M. A. Robb, J. R. Cheeseman, G. Scalmani, V. Barone, B. Mennucci, 
 G. A. Petersson, H. Nakatsuji, M. Caricato, X. Li, H. P. Hratchian, 
 A. F. Izmaylov, J. Bloino, G. Zheng, J. L. Sonnenberg, M. Hada, 
 M. Ehara, K. Toyota, R. Fukuda, J. Hasegawa, M. Ishida, T. Nakajima, 
 Y. Honda, O. Kitao, H. Nakai, T. Vreven, J. A. Montgomery, Jr., 
 J. E. Peralta, F. Ogliaro, M. Bearpark, J. J. Heyd, E. Brothers, 
 K. N. Kudin, V. N. Staroverov, T. Keith, R. Kobayashi, J. Normand, 
 K. Raghavachari, A. Rendell, J. C. Burant, S. S. Iyengar, J. Tomasi, 
 M. Cossi, N. Rega, J. M. Millam, M. Klene, J. E. Knox, J. B. Cross, 
 V. Bakken, C. Adamo, J. Jaramillo, R. Gomperts, R. E. Stratmann, 
 O. Yazyev, A. J. Austin, R. Cammi, C. Pomelli, J. W. Ochterski, 
 R. L. Martin, K. Morokuma, V. G. Zakrzewski, G. A. Voth, 
 P. Salvador, J. J. Dannenberg, S. Dapprich, A. D. Daniels, 
 O. Farkas, J. B. Foresman, J. V. Ortiz, J. Cioslowski, 
 and D. J. Fox, Gaussian, Inc., Wallingford CT, 2013.
 
 ******************************************
 Gaussian 09:  ES64L-G09RevD.01 24-Apr-2013
                 2-Jun-2021 
 ******************************************
 ------------------------
 #N B3LYP/6-311G(d,p) OPT
 ------------------------
 1/14=-1,18=20,19=15,26=3,38=1/1,3;
 2/9=110,12=2,17=6,18=5,40=1/2;
 3/5=4,6=6,7=101,11=2,16=1,25=1,30=1,71=1,74=-5/1,2,3;
 4//1;
 5/5=2,38=5/2;
 6/7=2,8=2,9=2,10=2,28=1/1;
 7//1,2,3,16;
 1/14=-1,18=20,19=15,26=3/3(2);
 2/9=110/2;
 99//99;
 2/9=110/2;
 3/5=4,6=6,7=101,11=2,16=1,25=1,30=1,71=1,74=-5/1,2,3;
 4/5=5,16=3,69=1/1;
 5/5=2,38=5/2;
 7//1,2,3,16;
 1/14=-1,18=20,19=15,26=3/3(-5);
 2/9=110/2;
 6/7=2,8=2,9=2,10=2,19=2,28=1/1;
 99/9=1/99;
 -------------
 1ed::11b::1ea
 -------------
 Symbolic Z-matrix:
 Charge =  0 Multiplicity = 1
 C                     1.37357  -0.25931   0.12343 
 C                     0.44654  -1.30947   0.05748 
 C                    -0.92869  -1.06717  -0.01968 
 C                     0.87309   1.04847   0.10702 
 C                    -0.50758   1.29279   0.01001 
 C                    -1.437     0.23928  -0.05861 
 N                    -2.86151   0.48378  -0.16479 
 C                    -3.6987   -0.41219  -0.94622 
 C                    -5.02431  -0.69573  -0.56311 
 C                    -5.84272  -1.53156  -1.32852 
 C                    -5.33925  -2.14078  -2.47281 
 C                    -4.02406  -1.90232  -2.86041 
 C                    -3.21968  -1.03234  -2.11641 
 C                    -3.46347   1.58979   0.55595 
 C                    -4.55655   2.29786   0.02075 
 C                    -5.19055   3.31176   0.74384 
 C                    -4.71584   3.67036   2.00149 
 C                    -3.61171   3.01317   2.53742 
 C                    -2.99958   1.97528   1.82745 
 C                     2.81693  -0.56311   0.1974 
 C                     3.51468  -1.6152   -0.36286 
 O                     2.93587  -2.52305  -1.19072 
 C                     3.73599  -3.70709  -1.29485 
 C                     5.22077  -3.3843   -1.46846 
 O                     5.74927  -2.61773  -0.37662 
 C                     4.88532  -1.63964   0.00214 
 C                     5.2705   -0.55719   0.7733 
 S                     3.89064   0.41051   1.13672 
 C                     6.62638  -0.1618    1.21485 
 C                     7.71662  -0.39075   0.3563 
 C                     9.03057  -0.09801   0.73654 
 C                     9.30175   0.44178   1.99446 
 C                     10.70251   0.67308   2.39697 
 C                     11.39112   1.81463   2.191 
 C                     10.68025   3.00268   1.56363 
 N                     10.09052   3.98827   1.04318 
 C                     12.80313   1.93626   2.60049 
 O                     13.38543   3.13456   2.3458 
 O                     13.42144   1.03134   3.13081 
 C                     8.22367   0.72947   2.84262 
 C                     6.90059   0.42681   2.45741 
 H                     0.77906  -2.34476   0.0704 
 H                    -1.59975  -1.92239  -0.04469 
 H                     1.54463   1.90265   0.15191 
 H                    -0.84755   2.32556  -0.02464 
 H                    -5.43887  -0.26708   0.34646 
 H                    -6.87092  -1.70663  -1.02366 
 H                    -5.97077  -2.8011   -3.06136 
 H                    -3.6219   -2.3857   -3.74702 
 H                    -2.20838  -0.84105  -2.4677 
 H                    -4.93485   2.05488  -0.96979 
 H                    -6.05612   3.81592   0.32209 
 H                    -5.20634   4.46034   2.56382 
 H                    -3.23198   3.29602   3.51571 
 H                    -2.16571   1.45416   2.29151 
 H                     3.37596  -4.27329  -2.16056 
 H                     3.56325  -4.31394  -0.39818 
 H                     5.39458  -2.82051  -2.39263 
 H                     5.79549  -4.31449  -1.52551 
 H                     7.54735  -0.81576  -0.63206 
 H                     9.83336  -0.31592   0.03565 
 H                     11.18453  -0.18852   2.85963 
 H                     12.86273   3.83986   1.91707 
 H                     8.3931    1.17447   3.82074 
 H                     6.0938    0.64241   3.15669 
 

 GradGradGradGradGradGradGradGradGradGradGradGradGradGradGradGradGradGrad
 Berny optimization.
 Initialization pass.
                           ----------------------------
                           !    Initial Parameters    !
                           ! (Angstroms and Degrees)  !
 --------------------------                            --------------------------
 ! Name  Definition              Value          Derivative Info.                !
 --------------------------------------------------------------------------------
 ! R1    R(1,2)                  1.4023         estimate D2E/DX2                !
 ! R2    R(1,4)                  1.4004         estimate D2E/DX2                !
 ! R3    R(1,20)                 1.4768         estimate D2E/DX2                !
 ! R4    R(2,3)                  1.3985         estimate D2E/DX2                !
 ! R5    R(2,42)                 1.0875         estimate D2E/DX2                !
 ! R6    R(3,6)                  1.4024         estimate D2E/DX2                !
 ! R7    R(3,43)                 1.0874         estimate D2E/DX2                !
 ! R8    R(4,5)                  1.4055         estimate D2E/DX2                !
 ! R9    R(4,44)                 1.0875         estimate D2E/DX2                !
 ! R10   R(5,6)                  1.4066         estimate D2E/DX2                !
 ! R11   R(5,45)                 1.0878         estimate D2E/DX2                !
 ! R12   R(6,7)                  1.4492         estimate D2E/DX2                !
 ! R13   R(7,8)                  1.4541         estimate D2E/DX2                !
 ! R14   R(7,14)                 1.4509         estimate D2E/DX2                !
 ! R15   R(8,9)                  1.4087         estimate D2E/DX2                !
 ! R16   R(8,13)                 1.4083         estimate D2E/DX2                !
 ! R17   R(9,10)                 1.3979         estimate D2E/DX2                !
 ! R18   R(9,46)                 1.0876         estimate D2E/DX2                !
 ! R19   R(10,11)                1.3907         estimate D2E/DX2                !
 ! R20   R(10,47)                1.0866         estimate D2E/DX2                !
 ! R21   R(11,12)                1.3917         estimate D2E/DX2                !
 ! R22   R(11,48)                1.0868         estimate D2E/DX2                !
 ! R23   R(12,13)                1.3991         estimate D2E/DX2                !
 ! R24   R(12,49)                1.087          estimate D2E/DX2                !
 ! R25   R(13,50)                1.0875         estimate D2E/DX2                !
 ! R26   R(14,15)                1.4081         estimate D2E/DX2                !
 ! R27   R(14,19)                1.4073         estimate D2E/DX2                !
 ! R28   R(15,16)                1.3974         estimate D2E/DX2                !
 ! R29   R(15,51)                1.0878         estimate D2E/DX2                !
 ! R30   R(16,17)                1.3913         estimate D2E/DX2                !
 ! R31   R(16,52)                1.0869         estimate D2E/DX2                !
 ! R32   R(17,18)                1.3922         estimate D2E/DX2                !
 ! R33   R(17,53)                1.0867         estimate D2E/DX2                !
 ! R34   R(18,19)                1.3986         estimate D2E/DX2                !
 ! R35   R(18,54)                1.0869         estimate D2E/DX2                !
 ! R36   R(19,55)                1.0873         estimate D2E/DX2                !
 ! R37   R(20,21)                1.3812         estimate D2E/DX2                !
 ! R38   R(20,28)                1.7272         estimate D2E/DX2                !
 ! R39   R(21,22)                1.3581         estimate D2E/DX2                !
 ! R40   R(21,26)                1.4186         estimate D2E/DX2                !
 ! R41   R(22,23)                1.4328         estimate D2E/DX2                !
 ! R42   R(23,24)                1.5293         estimate D2E/DX2                !
 ! R43   R(23,56)                1.0953         estimate D2E/DX2                !
 ! R44   R(23,57)                1.0964         estimate D2E/DX2                !
 ! R45   R(24,25)                1.4349         estimate D2E/DX2                !
 ! R46   R(24,58)                1.0964         estimate D2E/DX2                !
 ! R47   R(24,59)                1.0949         estimate D2E/DX2                !
 ! R48   R(25,26)                1.3589         estimate D2E/DX2                !
 ! R49   R(26,27)                1.3837         estimate D2E/DX2                !
 ! R50   R(27,28)                1.7241         estimate D2E/DX2                !
 ! R51   R(27,29)                1.4798         estimate D2E/DX2                !
 ! R52   R(29,30)                1.4065         estimate D2E/DX2                !
 ! R53   R(29,41)                1.402          estimate D2E/DX2                !
 ! R54   R(30,31)                1.3988         estimate D2E/DX2                !
 ! R55   R(30,60)                1.0891         estimate D2E/DX2                !
 ! R56   R(31,32)                1.3954         estimate D2E/DX2                !
 ! R57   R(31,61)                1.0878         estimate D2E/DX2                !
 ! R58   R(32,33)                1.4757         estimate D2E/DX2                !
 ! R59   R(32,40)                1.4016         estimate D2E/DX2                !
 ! R60   R(33,34)                1.349          estimate D2E/DX2                !
 ! R61   R(33,62)                1.0903         estimate D2E/DX2                !
 ! R62   R(34,35)                1.52           estimate D2E/DX2                !
 ! R63   R(34,37)                1.4752         estimate D2E/DX2                !
 ! R64   R(35,36)                1.261          estimate D2E/DX2                !
 ! R65   R(37,38)                1.3564         estimate D2E/DX2                !
 ! R66   R(37,39)                1.2175         estimate D2E/DX2                !
 ! R67   R(38,63)                0.977          estimate D2E/DX2                !
 ! R68   R(40,41)                1.4109         estimate D2E/DX2                !
 ! R69   R(40,64)                1.0879         estimate D2E/DX2                !
 ! R70   R(41,65)                1.0892         estimate D2E/DX2                !
 ! A1    A(2,1,4)              117.5511         estimate D2E/DX2                !
 ! A2    A(2,1,20)             119.6288         estimate D2E/DX2                !
 ! A3    A(4,1,20)             122.8188         estimate D2E/DX2                !
 ! A4    A(1,2,3)              121.5264         estimate D2E/DX2                !
 ! A5    A(1,2,42)             120.6799         estimate D2E/DX2                !
 ! A6    A(3,2,42)             117.7929         estimate D2E/DX2                !
 ! A7    A(2,3,6)              121.2885         estimate D2E/DX2                !
 ! A8    A(2,3,43)             118.1554         estimate D2E/DX2                !
 ! A9    A(6,3,43)             120.5556         estimate D2E/DX2                !
 ! A10   A(1,4,5)              120.9463         estimate D2E/DX2                !
 ! A11   A(1,4,44)             120.8208         estimate D2E/DX2                !
 ! A12   A(5,4,44)             118.2247         estimate D2E/DX2                !
 ! A13   A(4,5,6)              121.4853         estimate D2E/DX2                !
 ! A14   A(4,5,45)             118.3097         estimate D2E/DX2                !
 ! A15   A(6,5,45)             120.2002         estimate D2E/DX2                !
 ! A16   A(3,6,5)              117.1871         estimate D2E/DX2                !
 ! A17   A(3,6,7)              121.0293         estimate D2E/DX2                !
 ! A18   A(5,6,7)              121.7836         estimate D2E/DX2                !
 ! A19   A(6,7,8)              120.0898         estimate D2E/DX2                !
 ! A20   A(6,7,14)             120.0015         estimate D2E/DX2                !
 ! A21   A(8,7,14)             119.8548         estimate D2E/DX2                !
 ! A22   A(7,8,9)              121.3104         estimate D2E/DX2                !
 ! A23   A(7,8,13)             121.4691         estimate D2E/DX2                !
 ! A24   A(9,8,13)             117.2205         estimate D2E/DX2                !
 ! A25   A(8,9,10)             121.4899         estimate D2E/DX2                !
 ! A26   A(8,9,46)             120.4506         estimate D2E/DX2                !
 ! A27   A(10,9,46)            118.0594         estimate D2E/DX2                !
 ! A28   A(9,10,11)            120.0324         estimate D2E/DX2                !
 ! A29   A(9,10,47)            119.78           estimate D2E/DX2                !
 ! A30   A(11,10,47)           120.1871         estimate D2E/DX2                !
 ! A31   A(10,11,12)           119.7507         estimate D2E/DX2                !
 ! A32   A(10,11,48)           120.0905         estimate D2E/DX2                !
 ! A33   A(12,11,48)           120.1588         estimate D2E/DX2                !
 ! A34   A(11,12,13)           120.1171         estimate D2E/DX2                !
 ! A35   A(11,12,49)           120.0414         estimate D2E/DX2                !
 ! A36   A(13,12,49)           119.8397         estimate D2E/DX2                !
 ! A37   A(8,13,12)            121.3402         estimate D2E/DX2                !
 ! A38   A(8,13,50)            120.4798         estimate D2E/DX2                !
 ! A39   A(12,13,50)           118.1795         estimate D2E/DX2                !
 ! A40   A(7,14,15)            121.1045         estimate D2E/DX2                !
 ! A41   A(7,14,19)            121.3906         estimate D2E/DX2                !
 ! A42   A(15,14,19)           117.4881         estimate D2E/DX2                !
 ! A43   A(14,15,16)           121.3576         estimate D2E/DX2                !
 ! A44   A(14,15,51)           120.2489         estimate D2E/DX2                !
 ! A45   A(16,15,51)           118.3895         estimate D2E/DX2                !
 ! A46   A(15,16,17)           119.997          estimate D2E/DX2                !
 ! A47   A(15,16,52)           119.8073         estimate D2E/DX2                !
 ! A48   A(17,16,52)           120.1954         estimate D2E/DX2                !
 ! A49   A(16,17,18)           119.7961         estimate D2E/DX2                !
 ! A50   A(16,17,53)           120.0755         estimate D2E/DX2                !
 ! A51   A(18,17,53)           120.1284         estimate D2E/DX2                !
 ! A52   A(17,18,19)           120.1336         estimate D2E/DX2                !
 ! A53   A(17,18,54)           120.049          estimate D2E/DX2                !
 ! A54   A(19,18,54)           119.8114         estimate D2E/DX2                !
 ! A55   A(14,19,18)           121.1755         estimate D2E/DX2                !
 ! A56   A(14,19,55)           120.4723         estimate D2E/DX2                !
 ! A57   A(18,19,55)           118.3384         estimate D2E/DX2                !
 ! A58   A(1,20,21)            129.0585         estimate D2E/DX2                !
 ! A59   A(1,20,28)            121.2549         estimate D2E/DX2                !
 ! A60   A(21,20,28)           109.6304         estimate D2E/DX2                !
 ! A61   A(20,21,22)           122.7613         estimate D2E/DX2                !
 ! A62   A(20,21,26)           113.3818         estimate D2E/DX2                !
 ! A63   A(22,21,26)           123.8541         estimate D2E/DX2                !
 ! A64   A(21,22,23)           111.0202         estimate D2E/DX2                !
 ! A65   A(22,23,24)           112.085          estimate D2E/DX2                !
 ! A66   A(22,23,56)           107.5217         estimate D2E/DX2                !
 ! A67   A(22,23,57)           108.0574         estimate D2E/DX2                !
 ! A68   A(24,23,56)           109.7862         estimate D2E/DX2                !
 ! A69   A(24,23,57)           111.2611         estimate D2E/DX2                !
 ! A70   A(56,23,57)           107.9684         estimate D2E/DX2                !
 ! A71   A(23,24,25)           112.5787         estimate D2E/DX2                !
 ! A72   A(23,24,58)           110.9847         estimate D2E/DX2                !
 ! A73   A(23,24,59)           109.6462         estimate D2E/DX2                !
 ! A74   A(25,24,58)           107.9549         estimate D2E/DX2                !
 ! A75   A(25,24,59)           107.4679         estimate D2E/DX2                !
 ! A76   A(58,24,59)           108.0425         estimate D2E/DX2                !
 ! A77   A(24,25,26)           111.2501         estimate D2E/DX2                !
 ! A78   A(21,26,25)           123.7085         estimate D2E/DX2                !
 ! A79   A(21,26,27)           113.5068         estimate D2E/DX2                !
 ! A80   A(25,26,27)           122.7801         estimate D2E/DX2                !
 ! A81   A(26,27,28)           109.4969         estimate D2E/DX2                !
 ! A82   A(26,27,29)           129.0773         estimate D2E/DX2                !
 ! A83   A(28,27,29)           121.3632         estimate D2E/DX2                !
 ! A84   A(20,28,27)            93.8131         estimate D2E/DX2                !
 ! A85   A(27,29,30)           118.9877         estimate D2E/DX2                !
 ! A86   A(27,29,41)           123.769          estimate D2E/DX2                !
 ! A87   A(30,29,41)           117.2415         estimate D2E/DX2                !
 ! A88   A(29,30,31)           121.8789         estimate D2E/DX2                !
 ! A89   A(29,30,60)           119.8026         estimate D2E/DX2                !
 ! A90   A(31,30,60)           118.3163         estimate D2E/DX2                !
 ! A91   A(30,31,32)           120.5658         estimate D2E/DX2                !
 ! A92   A(30,31,61)           118.4353         estimate D2E/DX2                !
 ! A93   A(32,31,61)           120.9917         estimate D2E/DX2                !
 ! A94   A(31,32,33)           119.4047         estimate D2E/DX2                !
 ! A95   A(31,32,40)           118.3874         estimate D2E/DX2                !
 ! A96   A(33,32,40)           122.202          estimate D2E/DX2                !
 ! A97   A(32,33,34)           125.1376         estimate D2E/DX2                !
 ! A98   A(32,33,62)           114.3012         estimate D2E/DX2                !
 ! A99   A(34,33,62)           120.5202         estimate D2E/DX2                !
 ! A100  A(33,34,35)           119.0591         estimate D2E/DX2                !
 ! A101  A(33,34,37)           121.0634         estimate D2E/DX2                !
 ! A102  A(35,34,37)           119.8525         estimate D2E/DX2                !
 ! A103  A(34,37,38)           115.5704         estimate D2E/DX2                !
 ! A104  A(34,37,39)           123.0725         estimate D2E/DX2                !
 ! A105  A(38,37,39)           121.357          estimate D2E/DX2                !
 ! A106  A(37,38,63)           119.3727         estimate D2E/DX2                !
 ! A107  A(32,40,41)           120.8024         estimate D2E/DX2                !
 ! A108  A(32,40,64)           120.5485         estimate D2E/DX2                !
 ! A109  A(41,40,64)           118.6394         estimate D2E/DX2                !
 ! A110  A(29,41,40)           121.0283         estimate D2E/DX2                !
 ! A111  A(29,41,65)           120.4791         estimate D2E/DX2                !
 ! A112  A(40,41,65)           118.4814         estimate D2E/DX2                !
 ! A113  L(34,35,36,1,-1)      179.9999         estimate D2E/DX2                !
 ! A114  L(34,35,36,1,-2)      179.9997         estimate D2E/DX2                !
 ! D1    D(4,1,2,3)             -0.1077         estimate D2E/DX2                !
 ! D2    D(4,1,2,42)          -179.7725         estimate D2E/DX2                !
 ! D3    D(20,1,2,3)          -179.7129         estimate D2E/DX2                !
 ! D4    D(20,1,2,42)            0.6223         estimate D2E/DX2                !
 ! D5    D(2,1,4,5)             -0.821          estimate D2E/DX2                !
 ! D6    D(2,1,4,44)          -179.7648         estimate D2E/DX2                !
 ! D7    D(20,1,4,5)           178.7707         estimate D2E/DX2                !
 ! D8    D(20,1,4,44)           -0.1731         estimate D2E/DX2                !
 ! D9    D(2,1,20,21)           32.8455         estimate D2E/DX2                !
 ! D10   D(2,1,20,28)         -144.1298         estimate D2E/DX2                !
 ! D11   D(4,1,20,21)         -146.738          estimate D2E/DX2                !
 ! D12   D(4,1,20,28)           36.2867         estimate D2E/DX2                !
 ! D13   D(1,2,3,6)              1.1639         estimate D2E/DX2                !
 ! D14   D(1,2,3,43)          -178.5787         estimate D2E/DX2                !
 ! D15   D(42,2,3,6)          -179.1619         estimate D2E/DX2                !
 ! D16   D(42,2,3,43)            1.0955         estimate D2E/DX2                !
 ! D17   D(2,3,6,5)             -1.2295         estimate D2E/DX2                !
 ! D18   D(2,3,6,7)            178.7879         estimate D2E/DX2                !
 ! D19   D(43,3,6,5)           178.507          estimate D2E/DX2                !
 ! D20   D(43,3,6,7)            -1.4757         estimate D2E/DX2                !
 ! D21   D(1,4,5,6)              0.7346         estimate D2E/DX2                !
 ! D22   D(1,4,5,45)          -178.4651         estimate D2E/DX2                !
 ! D23   D(44,4,5,6)           179.7051         estimate D2E/DX2                !
 ! D24   D(44,4,5,45)            0.5054         estimate D2E/DX2                !
 ! D25   D(4,5,6,3)              0.299          estimate D2E/DX2                !
 ! D26   D(4,5,6,7)           -179.7184         estimate D2E/DX2                !
 ! D27   D(45,5,6,3)           179.4838         estimate D2E/DX2                !
 ! D28   D(45,5,6,7)            -0.5337         estimate D2E/DX2                !
 ! D29   D(3,6,7,8)            -34.7951         estimate D2E/DX2                !
 ! D30   D(3,6,7,14)           142.5315         estimate D2E/DX2                !
 ! D31   D(5,6,7,8)            145.223          estimate D2E/DX2                !
 ! D32   D(5,6,7,14)           -37.4504         estimate D2E/DX2                !
 ! D33   D(6,7,8,9)            145.6814         estimate D2E/DX2                !
 ! D34   D(6,7,8,13)           -34.3242         estimate D2E/DX2                !
 ! D35   D(14,7,8,9)           -31.6491         estimate D2E/DX2                !
 ! D36   D(14,7,8,13)          148.3453         estimate D2E/DX2                !
 ! D37   D(6,7,14,15)          146.375          estimate D2E/DX2                !
 ! D38   D(6,7,14,19)          -35.1524         estimate D2E/DX2                !
 ! D39   D(8,7,14,15)          -36.2921         estimate D2E/DX2                !
 ! D40   D(8,7,14,19)          142.1805         estimate D2E/DX2                !
 ! D41   D(7,8,9,10)           178.4685         estimate D2E/DX2                !
 ! D42   D(7,8,9,46)            -1.7018         estimate D2E/DX2                !
 ! D43   D(13,8,9,10)           -1.5261         estimate D2E/DX2                !
 ! D44   D(13,8,9,46)          178.3035         estimate D2E/DX2                !
 ! D45   D(7,8,13,12)          179.4837         estimate D2E/DX2                !
 ! D46   D(7,8,13,50)           -0.7678         estimate D2E/DX2                !
 ! D47   D(9,8,13,12)           -0.5217         estimate D2E/DX2                !
 ! D48   D(9,8,13,50)          179.2268         estimate D2E/DX2                !
 ! D49   D(8,9,10,11)            2.1915         estimate D2E/DX2                !
 ! D50   D(8,9,10,47)         -178.0885         estimate D2E/DX2                !
 ! D51   D(46,9,10,11)        -177.642          estimate D2E/DX2                !
 ! D52   D(46,9,10,47)           2.0779         estimate D2E/DX2                !
 ! D53   D(9,10,11,12)          -0.7596         estimate D2E/DX2                !
 ! D54   D(9,10,11,48)         179.1961         estimate D2E/DX2                !
 ! D55   D(47,10,11,12)        179.5216         estimate D2E/DX2                !
 ! D56   D(47,10,11,48)         -0.5228         estimate D2E/DX2                !
 ! D57   D(10,11,12,13)         -1.2577         estimate D2E/DX2                !
 ! D58   D(10,11,12,49)        179.2387         estimate D2E/DX2                !
 ! D59   D(48,11,12,13)        178.7866         estimate D2E/DX2                !
 ! D60   D(48,11,12,49)         -0.7169         estimate D2E/DX2                !
 ! D61   D(11,12,13,8)           1.9174         estimate D2E/DX2                !
 ! D62   D(11,12,13,50)       -177.8368         estimate D2E/DX2                !
 ! D63   D(49,12,13,8)        -178.5781         estimate D2E/DX2                !
 ! D64   D(49,12,13,50)          1.6677         estimate D2E/DX2                !
 ! D65   D(7,14,15,16)         176.1708         estimate D2E/DX2                !
 ! D66   D(7,14,15,51)          -3.0908         estimate D2E/DX2                !
 ! D67   D(19,14,15,16)         -2.3594         estimate D2E/DX2                !
 ! D68   D(19,14,15,51)        178.379          estimate D2E/DX2                !
 ! D69   D(7,14,19,18)        -177.8467         estimate D2E/DX2                !
 ! D70   D(7,14,19,55)           0.7756         estimate D2E/DX2                !
 ! D71   D(15,14,19,18)          0.6791         estimate D2E/DX2                !
 ! D72   D(15,14,19,55)        179.3013         estimate D2E/DX2                !
 ! D73   D(14,15,16,17)          2.1661         estimate D2E/DX2                !
 ! D74   D(14,15,16,52)       -177.641          estimate D2E/DX2                !
 ! D75   D(51,15,16,17)       -178.5589         estimate D2E/DX2                !
 ! D76   D(51,15,16,52)          1.634          estimate D2E/DX2                !
 ! D77   D(15,16,17,18)         -0.2191         estimate D2E/DX2                !
 ! D78   D(15,16,17,53)        179.8447         estimate D2E/DX2                !
 ! D79   D(52,16,17,18)        179.5872         estimate D2E/DX2                !
 ! D80   D(52,16,17,53)         -0.3489         estimate D2E/DX2                !
 ! D81   D(16,17,18,19)         -1.4373         estimate D2E/DX2                !
 ! D82   D(16,17,18,54)        179.4532         estimate D2E/DX2                !
 ! D83   D(53,17,18,19)        178.4988         estimate D2E/DX2                !
 ! D84   D(53,17,18,54)         -0.6107         estimate D2E/DX2                !
 ! D85   D(17,18,19,14)          1.2            estimate D2E/DX2                !
 ! D86   D(17,18,19,55)       -177.4509         estimate D2E/DX2                !
 ! D87   D(54,18,19,14)       -179.6884         estimate D2E/DX2                !
 ! D88   D(54,18,19,55)          1.6607         estimate D2E/DX2                !
 ! D89   D(1,20,21,22)           4.982          estimate D2E/DX2                !
 ! D90   D(1,20,21,26)        -175.6074         estimate D2E/DX2                !
 ! D91   D(28,20,21,22)       -177.763          estimate D2E/DX2                !
 ! D92   D(28,20,21,26)          1.6476         estimate D2E/DX2                !
 ! D93   D(1,20,28,27)         178.2778         estimate D2E/DX2                !
 ! D94   D(21,20,28,27)          0.771          estimate D2E/DX2                !
 ! D95   D(20,21,22,23)       -162.0956         estimate D2E/DX2                !
 ! D96   D(26,21,22,23)         18.5559         estimate D2E/DX2                !
 ! D97   D(20,21,26,25)        176.7046         estimate D2E/DX2                !
 ! D98   D(20,21,26,27)         -4.0507         estimate D2E/DX2                !
 ! D99   D(22,21,26,25)         -3.8922         estimate D2E/DX2                !
 ! D100  D(22,21,26,27)        175.3525         estimate D2E/DX2                !
 ! D101  D(21,22,23,24)        -44.1613         estimate D2E/DX2                !
 ! D102  D(21,22,23,56)       -164.9046         estimate D2E/DX2                !
 ! D103  D(21,22,23,57)         78.7876         estimate D2E/DX2                !
 ! D104  D(22,23,24,25)         59.4072         estimate D2E/DX2                !
 ! D105  D(22,23,24,58)        -61.7284         estimate D2E/DX2                !
 ! D106  D(22,23,24,59)        178.9866         estimate D2E/DX2                !
 ! D107  D(56,23,24,25)        178.8307         estimate D2E/DX2                !
 ! D108  D(56,23,24,58)         57.6951         estimate D2E/DX2                !
 ! D109  D(56,23,24,59)        -61.5899         estimate D2E/DX2                !
 ! D110  D(57,23,24,25)        -61.7122         estimate D2E/DX2                !
 ! D111  D(57,23,24,58)        177.1522         estimate D2E/DX2                !
 ! D112  D(57,23,24,59)         57.8672         estimate D2E/DX2                !
 ! D113  D(23,24,25,26)        -42.3362         estimate D2E/DX2                !
 ! D114  D(58,24,25,26)         80.5142         estimate D2E/DX2                !
 ! D115  D(59,24,25,26)       -163.1718         estimate D2E/DX2                !
 ! D116  D(24,25,26,21)         16.4529         estimate D2E/DX2                !
 ! D117  D(24,25,26,27)       -162.7233         estimate D2E/DX2                !
 ! D118  D(21,26,27,28)          4.4501         estimate D2E/DX2                !
 ! D119  D(21,26,27,29)       -172.656          estimate D2E/DX2                !
 ! D120  D(25,26,27,28)       -176.2973         estimate D2E/DX2                !
 ! D121  D(25,26,27,29)          6.5967         estimate D2E/DX2                !
 ! D122  D(26,27,28,20)         -2.9865         estimate D2E/DX2                !
 ! D123  D(29,27,28,20)        174.3827         estimate D2E/DX2                !
 ! D124  D(26,27,29,30)         34.8516         estimate D2E/DX2                !
 ! D125  D(26,27,29,41)       -144.6577         estimate D2E/DX2                !
 ! D126  D(28,27,29,30)       -141.9532         estimate D2E/DX2                !
 ! D127  D(28,27,29,41)         38.5374         estimate D2E/DX2                !
 ! D128  D(27,29,30,31)       -176.9926         estimate D2E/DX2                !
 ! D129  D(27,29,30,60)          2.4607         estimate D2E/DX2                !
 ! D130  D(41,29,30,31)          2.5486         estimate D2E/DX2                !
 ! D131  D(41,29,30,60)       -177.9981         estimate D2E/DX2                !
 ! D132  D(27,29,41,40)        177.2907         estimate D2E/DX2                !
 ! D133  D(27,29,41,65)         -1.4707         estimate D2E/DX2                !
 ! D134  D(30,29,41,40)         -2.2265         estimate D2E/DX2                !
 ! D135  D(30,29,41,65)        179.0121         estimate D2E/DX2                !
 ! D136  D(29,30,31,32)         -0.2359         estimate D2E/DX2                !
 ! D137  D(29,30,31,61)        178.799          estimate D2E/DX2                !
 ! D138  D(60,30,31,32)       -179.697          estimate D2E/DX2                !
 ! D139  D(60,30,31,61)         -0.6622         estimate D2E/DX2                !
 ! D140  D(30,31,32,33)        176.7263         estimate D2E/DX2                !
 ! D141  D(30,31,32,40)         -2.4151         estimate D2E/DX2                !
 ! D142  D(61,31,32,33)         -2.2837         estimate D2E/DX2                !
 ! D143  D(61,31,32,40)        178.575          estimate D2E/DX2                !
 ! D144  D(31,32,33,34)         90.5088         estimate D2E/DX2                !
 ! D145  D(31,32,33,62)        -87.1628         estimate D2E/DX2                !
 ! D146  D(40,32,33,34)        -90.3839         estimate D2E/DX2                !
 ! D147  D(40,32,33,62)         91.9445         estimate D2E/DX2                !
 ! D148  D(31,32,40,41)          2.7188         estimate D2E/DX2                !
 ! D149  D(31,32,40,64)       -178.4336         estimate D2E/DX2                !
 ! D150  D(33,32,40,41)       -176.3971         estimate D2E/DX2                !
 ! D151  D(33,32,40,64)          2.4504         estimate D2E/DX2                !
 ! D152  D(32,33,34,35)          3.4272         estimate D2E/DX2                !
 ! D153  D(32,33,34,37)       -178.3929         estimate D2E/DX2                !
 ! D154  D(62,33,34,35)       -179.0363         estimate D2E/DX2                !
 ! D155  D(62,33,34,37)         -0.8564         estimate D2E/DX2                !
 ! D156  D(33,34,37,38)       -179.7139         estimate D2E/DX2                !
 ! D157  D(33,34,37,39)          0.4109         estimate D2E/DX2                !
 ! D158  D(35,34,37,38)         -1.5483         estimate D2E/DX2                !
 ! D159  D(35,34,37,39)        178.5766         estimate D2E/DX2                !
 ! D160  D(34,37,38,63)         -0.0207         estimate D2E/DX2                !
 ! D161  D(39,37,38,63)        179.8568         estimate D2E/DX2                !
 ! D162  D(32,40,41,29)         -0.3772         estimate D2E/DX2                !
 ! D163  D(32,40,41,65)        178.4084         estimate D2E/DX2                !
 ! D164  D(64,40,41,29)       -179.2464         estimate D2E/DX2                !
 ! D165  D(64,40,41,65)         -0.4608         estimate D2E/DX2                !
 --------------------------------------------------------------------------------
 Trust Radius=3.00D-01 FncErr=1.00D-07 GrdErr=1.00D-06
 Number of steps in this run=    359 maximum allowed number of steps=    390.
 GradGradGradGradGradGradGradGradGradGradGradGradGradGradGradGradGradGrad

 Stoichiometry    C34H24N2O4S
 Framework group  C1[X(C34H24N2O4S)]
 Deg. of freedom   189
 Full point group                 C1      NOp   1
 Largest Abelian subgroup         C1      NOp   1
 Largest concise Abelian subgroup C1      NOp   1
                         Standard orientation:                         
 ---------------------------------------------------------------------
 Center     Atomic      Atomic             Coordinates (Angstroms)
 Number     Number       Type             X           Y           Z
 ---------------------------------------------------------------------
      1          6           0        1.537795   -0.386058   -0.063426
      2          6           0        2.520589   -1.216855   -0.620618
      3          6           0        3.876179   -0.875418   -0.579186
      4          6           0        1.962132    0.803377    0.541737
      5          6           0        3.325984    1.137708    0.600745
      6          6           0        4.311725    0.303010    0.043962
      7          7           0        5.720223    0.638451    0.106377
      8          6           0        6.714159   -0.412708    0.252800
      9          6           0        7.980089   -0.313298   -0.357076
     10          6           0        8.949749   -1.306814   -0.192928
     11          6           0        8.659658   -2.446714    0.549032
     12          6           0        7.407177   -2.586171    1.139510
     13          6           0        6.452722   -1.571547    1.009196
     14          6           0        6.144249    2.018730   -0.035439
     15          6           0        7.265036    2.510558    0.660670
     16          6           0        7.725404    3.815854    0.468129
     17          6           0        7.046747    4.672952   -0.392356
     18          6           0        5.912139    4.224329   -1.062896
     19          6           0        5.472691    2.907158   -0.895797
     20          6           0        0.118838   -0.790777   -0.125208
     21          6           0       -0.426991   -2.058898   -0.085476
     22          8           0        0.319623   -3.174216    0.122370
     23          6           0       -0.389014   -4.350586   -0.286252
     24          6           0       -1.845912   -4.334800    0.178618
     25          8           0       -2.575046   -3.209400   -0.332164
     26          6           0       -1.833633   -2.072371   -0.268924
     27          6           0       -2.390187   -0.808924   -0.362194
     28         16           0       -1.136709    0.374726   -0.345014
     29          6           0       -3.816993   -0.419115   -0.406745
     30          6           0       -4.750406   -1.163180    0.337067
     31          6           0       -6.120890   -0.886853    0.290578
     32          6           0       -6.608704    0.152648   -0.502359
     33          6           0       -8.064848    0.375682   -0.589207
     34          6           0       -8.776211    1.184506    0.222896
     35          6           0       -8.045147    2.002425    1.275011
     36          7           0       -7.438666    2.680963    2.147824
     37          6           0      -10.238470    1.314235    0.077229
     38          8           0      -10.840664    2.161967    0.948191
     39          8           0      -10.879099    0.707028   -0.761413
     40          6           0       -5.688958    0.941275   -1.207008
     41          6           0       -4.308164    0.655060   -1.162066
     42          1           0        2.247526   -2.150715   -1.106318
     43          1           0        4.589403   -1.548469   -1.048933
     44          1           0        1.245482    1.485006    0.993844
     45          1           0        3.609828    2.059860    1.103201
     46          1           0        8.227916    0.546227   -0.975716
     47          1           0        9.928020   -1.187041   -0.650558
     48          1           0        9.408422   -3.225702    0.666347
     49          1           0        7.171129   -3.480713    1.710073
     50          1           0        5.497265   -1.697445    1.513155
     51          1           0        7.801735    1.870317    1.357351
     52          1           0        8.615720    4.157184    0.989755
     53          1           0        7.402169    5.689037   -0.541087
     54          1           0        5.373686    4.893156   -1.729221
     55          1           0        4.608191    2.575269   -1.465662
     56          1           0        0.128574   -5.213965    0.145417
     57          1           0       -0.320814   -4.426416   -1.377912
     58          1           0       -1.908631   -4.309707    1.272965
     59          1           0       -2.353213   -5.240507   -0.169450
     60          1           0       -4.410303   -1.986050    0.964248
     61          1           0       -6.795082   -1.510562    0.873377
     62          1           0       -8.563113   -0.209713   -1.362380
     63          1           0      -10.298771    2.632821    1.610853
     64          1           0       -6.028770    1.776579   -1.815486
     65          1           0       -3.629653    1.276478   -1.745030
 ---------------------------------------------------------------------
 Rotational constants (GHZ):      0.1756769      0.0246818      0.0221796
 Standard basis: 6-311G(d,p) (5D, 7F)
 There are   931 symmetry adapted cartesian basis functions of A   symmetry.
 There are   890 symmetry adapted basis functions of A   symmetry.
   890 basis functions,  1518 primitive gaussians,   931 cartesian basis functions
   145 alpha electrons      145 beta electrons
       nuclear repulsion energy      4172.2341814303 Hartrees.
 NAtoms=   65 NActive=   65 NUniq=   65 SFac= 1.00D+00 NAtFMM=   60 NAOKFM=T Big=T
 Integral buffers will be    131072 words long.
 Raffenetti 2 integral format.
 Two-electron integral symmetry is turned on.
 One-electron integrals computed using PRISM.
 NBasis=   890 RedAO= T EigKep=  1.53D-04  NBF=   890
 NBsUse=   890 1.00D-06 EigRej= -1.00D+00 NBFU=   890
 ExpMin= 7.71D-02 ExpMax= 9.34D+04 ExpMxC= 3.17D+03 IAcc=2 IRadAn=         4 AccDes= 0.00D+00
 Harris functional with IExCor=  402 and IRadAn=       4 diagonalized for initial guess.
 HarFok:  IExCor=  402 AccDes= 0.00D+00 IRadAn=         4 IDoV= 1 UseB2=F ITyADJ=14
 ICtDFT=  3500011 ScaDFX=  1.000000  1.000000  1.000000  1.000000
 FoFCou: FMM=F IPFlag=           0 FMFlag=      100000 FMFlg1=        2001
         NFxFlg=           0 DoJE=T BraDBF=F KetDBF=T FulRan=T
         wScrn=  0.000000 ICntrl=     500 IOpCl=  0 I1Cent=   200000004 NGrid=           0
         NMat0=    1 NMatS0=      1 NMatT0=    0 NMatD0=    1 NMtDS0=    0 NMtDT0=    0
 Petite list used in FoFCou.
 Requested convergence on RMS density matrix=1.00D-08 within 128 cycles.
 Requested convergence on MAX density matrix=1.00D-06.
 Requested convergence on             energy=1.00D-06.
 No special actions if energy rises.
 Integral accuracy reduced to 1.0D-05 until final iterations.
 Initial convergence to 1.0D-05 achieved.  Increase integral accuracy.
 SCF Done:  E(RB3LYP) =  -2119.01409948     A.U. after   17 cycles
            NFock= 17  Conv=0.53D-08     -V/T= 2.0040

 **********************************************************************

            Population analysis using the SCF density.

 **********************************************************************

 Orbital symmetries:
       Occupied  (A) (A) (A) (A) (A) (A) (A) (A) (A) (A) (A) (A)
                 (A) (A) (A) (A) (A) (A) (A) (A) (A) (A) (A) (A)
                 (A) (A) (A) (A) (A) (A) (A) (A) (A) (A) (A) (A)
                 (A) (A) (A) (A) (A) (A) (A) (A) (A) (A) (A) (A)
                 (A) (A) (A) (A) (A) (A) (A) (A) (A) (A) (A) (A)
                 (A) (A) (A) (A) (A) (A) (A) (A) (A) (A) (A) (A)
                 (A) (A) (A) (A) (A) (A) (A) (A) (A) (A) (A) (A)
                 (A) (A) (A) (A) (A) (A) (A) (A) (A) (A) (A) (A)
                 (A) (A) (A) (A) (A) (A) (A) (A) (A) (A) (A) (A)
                 (A) (A) (A) (A) (A) (A) (A) (A) (A) (A) (A) (A)
                 (A) (A) (A) (A) (A) (A) (A) (A) (A) (A) (A) (A)
                 (A) (A) (A) (A) (A) (A) (A) (A) (A) (A) (A) (A)
                 (A)
       Virtual   (A) (A) (A) (A) (A) (A) (A) (A) (A) (A) (A) (A)
                 (A) (A) (A) (A) (A) (A) (A) (A) (A) (A) (A) (A)
                 (A) (A) (A) (A) (A) (A) (A) (A) (A) (A) (A) (A)
                 (A) (A) (A) (A) (A) (A) (A) (A) (A) (A) (A) (A)
                 (A) (A) (A) (A) (A) (A) (A) (A) (A) (A) (A) (A)
                 (A) (A) (A) (A) (A) (A) (A) (A) (A) (A) (A) (A)
                 (A) (A) (A) (A) (A) (A) (A) (A) (A) (A) (A) (A)
                 (A) (A) (A) (A) (A) (A) (A) (A) (A) (A) (A) (A)
                 (A) (A) (A) (A) (A) (A) (A) (A) (A) (A) (A) (A)
                 (A) (A) (A) (A) (A) (A) (A) (A) (A) (A) (A) (A)
                 (A) (A) (A) (A) (A) (A) (A) (A) (A) (A) (A) (A)
                 (A) (A) (A) (A) (A) (A) (A) (A) (A) (A) (A) (A)
                 (A) (A) (A) (A) (A) (A) (A) (A) (A) (A) (A) (A)
                 (A) (A) (A) (A) (A) (A) (A) (A) (A) (A) (A) (A)
                 (A) (A) (A) (A) (A) (A) (A) (A) (A) (A) (A) (A)
                 (A) (A) (A) (A) (A) (A) (A) (A) (A) (A) (A) (A)
                 (A) (A) (A) (A) (A) (A) (A) (A) (A) (A) (A) (A)
                 (A) (A) (A) (A) (A) (A) (A) (A) (A) (A) (A) (A)
                 (A) (A) (A) (A) (A) (A) (A) (A) (A) (A) (A) (A)
                 (A) (A) (A) (A) (A) (A) (A) (A) (A) (A) (A) (A)
                 (A) (A) (A) (A) (A) (A) (A) (A) (A) (A) (A) (A)
                 (A) (A) (A) (A) (A) (A) (A) (A) (A) (A) (A) (A)
                 (A) (A) (A) (A) (A) (A) (A) (A) (A) (A) (A) (A)
                 (A) (A) (A) (A) (A) (A) (A) (A) (A) (A) (A) (A)
                 (A) (A) (A) (A) (A) (A) (A) (A) (A) (A) (A) (A)
                 (A) (A) (A) (A) (A) (A) (A) (A) (A) (A) (A) (A)
                 (A) (A) (A) (A) (A) (A) (A) (A) (A) (A) (A) (A)
                 (A) (A) (A) (A) (A) (A) (A) (A) (A) (A) (A) (A)
                 (A) (A) (A) (A) (A) (A) (A) (A) (A) (A) (A) (A)
                 (A) (A) (A) (A) (A) (A) (A) (A) (A) (A) (A) (A)
                 (A) (A) (A) (A) (A) (A) (A) (A) (A) (A) (A) (A)
                 (A) (A) (A) (A) (A) (A) (A) (A) (A) (A) (A) (A)
                 (A) (A) (A) (A) (A) (A) (A) (A) (A) (A) (A) (A)
                 (A) (A) (A) (A) (A) (A) (A) (A) (A) (A) (A) (A)
                 (A) (A) (A) (A) (A) (A) (A) (A) (A) (A) (A) (A)
                 (A) (A) (A) (A) (A) (A) (A) (A) (A) (A) (A) (A)
                 (A) (A) (A) (A) (A) (A) (A) (A) (A) (A) (A) (A)
                 (A) (A) (A) (A) (A) (A) (A) (A) (A) (A) (A) (A)
                 (A) (A) (A) (A) (A) (A) (A) (A) (A) (A) (A) (A)
                 (A) (A) (A) (A) (A) (A) (A) (A) (A) (A) (A) (A)
                 (A) (A) (A) (A) (A) (A) (A) (A) (A) (A) (A) (A)
                 (A) (A) (A) (A) (A) (A) (A) (A) (A) (A) (A) (A)
                 (A) (A) (A) (A) (A) (A) (A) (A) (A) (A) (A) (A)
                 (A) (A) (A) (A) (A) (A) (A) (A) (A) (A) (A) (A)
                 (A) (A) (A) (A) (A) (A) (A) (A) (A) (A) (A) (A)
                 (A) (A) (A) (A) (A) (A) (A) (A) (A) (A) (A) (A)
                 (A) (A) (A) (A) (A) (A) (A) (A) (A) (A) (A) (A)
                 (A) (A) (A) (A) (A) (A) (A) (A) (A) (A) (A) (A)
                 (A) (A) (A) (A) (A) (A) (A) (A) (A) (A) (A) (A)
                 (A) (A) (A) (A) (A) (A) (A) (A) (A) (A) (A) (A)
                 (A) (A) (A) (A) (A) (A) (A) (A) (A) (A) (A) (A)
                 (A) (A) (A) (A) (A) (A) (A) (A) (A) (A) (A) (A)
                 (A) (A) (A) (A) (A) (A) (A) (A) (A) (A) (A) (A)
                 (A) (A) (A) (A) (A) (A) (A) (A) (A) (A) (A) (A)
                 (A) (A) (A) (A) (A) (A) (A) (A) (A) (A) (A) (A)
                 (A) (A) (A) (A) (A) (A) (A) (A) (A) (A) (A) (A)
                 (A) (A) (A) (A) (A) (A) (A) (A) (A) (A) (A) (A)
                 (A) (A) (A) (A) (A) (A) (A) (A) (A) (A) (A) (A)
                 (A) (A) (A) (A) (A) (A) (A) (A) (A) (A) (A) (A)
                 (A) (A) (A) (A) (A) (A) (A) (A) (A) (A) (A) (A)
                 (A) (A) (A) (A) (A) (A) (A) (A) (A) (A) (A) (A)
                 (A) (A) (A) (A) (A) (A) (A) (A) (A) (A) (A) (A)
                 (A)
 The electronic state is 1-A.
 Alpha  occ. eigenvalues --  -88.87898 -19.17945 -19.17077 -19.16899 -19.12337
 Alpha  occ. eigenvalues --  -14.36121 -14.35664 -10.33248 -10.26260 -10.25900
 Alpha  occ. eigenvalues --  -10.25401 -10.25368 -10.24480 -10.24345 -10.24184
 Alpha  occ. eigenvalues --  -10.22665 -10.22595 -10.22564 -10.21009 -10.20993
 Alpha  occ. eigenvalues --  -10.20917 -10.20882 -10.19782 -10.19519 -10.19470
 Alpha  occ. eigenvalues --  -10.19369 -10.18978 -10.18361 -10.18087 -10.18023
 Alpha  occ. eigenvalues --  -10.17911 -10.17893 -10.17875 -10.17868 -10.17852
 Alpha  occ. eigenvalues --  -10.17790 -10.17785 -10.17753 -10.17740 -10.17292
 Alpha  occ. eigenvalues --  -10.17267  -7.96592  -5.92896  -5.92529  -5.92143
 Alpha  occ. eigenvalues --   -1.11534  -1.10841  -1.07583  -1.03602  -0.95849
 Alpha  occ. eigenvalues --   -0.90465  -0.90054  -0.88254  -0.86407  -0.86101
 Alpha  occ. eigenvalues --   -0.84757  -0.84265  -0.79693  -0.79438  -0.77342
 Alpha  occ. eigenvalues --   -0.76363  -0.76310  -0.75262  -0.75016  -0.74837
 Alpha  occ. eigenvalues --   -0.73851  -0.72403  -0.71387  -0.69665  -0.66627
 Alpha  occ. eigenvalues --   -0.64901  -0.63642  -0.63196  -0.62792  -0.61784
 Alpha  occ. eigenvalues --   -0.61085  -0.60633  -0.60612  -0.59457  -0.58621
 Alpha  occ. eigenvalues --   -0.57852  -0.56022  -0.55780  -0.53870  -0.53725
 Alpha  occ. eigenvalues --   -0.53713  -0.52165  -0.51243  -0.49959  -0.48948
 Alpha  occ. eigenvalues --   -0.48480  -0.48294  -0.47372  -0.47100  -0.46855
 Alpha  occ. eigenvalues --   -0.46388  -0.46111  -0.46036  -0.45867  -0.45678
 Alpha  occ. eigenvalues --   -0.45053  -0.44571  -0.43984  -0.43765  -0.43586
 Alpha  occ. eigenvalues --   -0.43123  -0.42781  -0.42598  -0.42425  -0.42304
 Alpha  occ. eigenvalues --   -0.41238  -0.40141  -0.39531  -0.38774  -0.38682
 Alpha  occ. eigenvalues --   -0.38186  -0.37932  -0.37575  -0.37451  -0.37135
 Alpha  occ. eigenvalues --   -0.36942  -0.36665  -0.36354  -0.36014  -0.35559
 Alpha  occ. eigenvalues --   -0.35326  -0.34972  -0.34890  -0.34886  -0.33938
 Alpha  occ. eigenvalues --   -0.33890  -0.32834  -0.31796  -0.30252  -0.30073
 Alpha  occ. eigenvalues --   -0.28672  -0.27048  -0.26700  -0.26664  -0.26533
 Alpha  occ. eigenvalues --   -0.25612  -0.25537  -0.22963  -0.21664  -0.18966
 Alpha virt. eigenvalues --   -0.10076  -0.05857  -0.03232  -0.03049  -0.02847
 Alpha virt. eigenvalues --   -0.02506  -0.02427  -0.01506  -0.00944  -0.00748
 Alpha virt. eigenvalues --    0.00495   0.02166   0.02380   0.02917   0.03218
 Alpha virt. eigenvalues --    0.03966   0.04490   0.04876   0.05039   0.05260
 Alpha virt. eigenvalues --    0.06353   0.06998   0.07416   0.07571   0.07699
 Alpha virt. eigenvalues --    0.07947   0.08164   0.08707   0.09102   0.09191
 Alpha virt. eigenvalues --    0.09777   0.09845   0.10191   0.11157   0.11825
 Alpha virt. eigenvalues --    0.11891   0.12098   0.12254   0.12704   0.13136
 Alpha virt. eigenvalues --    0.13275   0.13344   0.13420   0.14254   0.14822
 Alpha virt. eigenvalues --    0.15046   0.15521   0.16448   0.17438   0.18393
 Alpha virt. eigenvalues --    0.19474   0.20103   0.20410   0.21326   0.21758
 Alpha virt. eigenvalues --    0.21795   0.23320   0.23799   0.24150   0.25299
 Alpha virt. eigenvalues --    0.25584   0.25844   0.26356   0.26898   0.27149
 Alpha virt. eigenvalues --    0.27291   0.27737   0.28297   0.28816   0.28862
 Alpha virt. eigenvalues --    0.29790   0.30006   0.30369   0.30631   0.30770
 Alpha virt. eigenvalues --    0.31081   0.32092   0.32258   0.32479   0.33013
 Alpha virt. eigenvalues --    0.33191   0.33541   0.33832   0.34288   0.34637
 Alpha virt. eigenvalues --    0.34684   0.34827   0.35588   0.36317   0.36666
 Alpha virt. eigenvalues --    0.36889   0.37123   0.38126   0.38206   0.38503
 Alpha virt. eigenvalues --    0.38798   0.39096   0.39217   0.39345   0.39578
 Alpha virt. eigenvalues --    0.39823   0.40039   0.40163   0.40188   0.40641
 Alpha virt. eigenvalues --    0.40773   0.41087   0.41632   0.41940   0.42099
 Alpha virt. eigenvalues --    0.42198   0.42416   0.42675   0.42845   0.43033
 Alpha virt. eigenvalues --    0.43248   0.43350   0.43437   0.43703   0.44138
 Alpha virt. eigenvalues --    0.44860   0.44890   0.45622   0.45981   0.46220
 Alpha virt. eigenvalues --    0.46572   0.47187   0.47440   0.47938   0.48060
 Alpha virt. eigenvalues --    0.48337   0.48497   0.49143   0.49308   0.49635
 Alpha virt. eigenvalues --    0.50627   0.50979   0.51572   0.51685   0.52519
 Alpha virt. eigenvalues --    0.52799   0.53297   0.53749   0.53995   0.54215
 Alpha virt. eigenvalues --    0.54421   0.54748   0.55078   0.55252   0.55469
 Alpha virt. eigenvalues --    0.55690   0.55941   0.56274   0.56810   0.57112
 Alpha virt. eigenvalues --    0.57366   0.57690   0.57942   0.58416   0.58761
 Alpha virt. eigenvalues --    0.59280   0.59774   0.59908   0.59977   0.60043
 Alpha virt. eigenvalues --    0.60557   0.60681   0.60834   0.61138   0.61269
 Alpha virt. eigenvalues --    0.61607   0.61850   0.62260   0.62525   0.62626
 Alpha virt. eigenvalues --    0.63016   0.63392   0.63663   0.64097   0.64341
 Alpha virt. eigenvalues --    0.65125   0.65323   0.65582   0.66010   0.66325
 Alpha virt. eigenvalues --    0.66709   0.67058   0.67233   0.67998   0.68781
 Alpha virt. eigenvalues --    0.69726   0.69970   0.70915   0.71078   0.71733
 Alpha virt. eigenvalues --    0.71985   0.72647   0.73017   0.73677   0.73788
 Alpha virt. eigenvalues --    0.74412   0.74702   0.74786   0.75199   0.76284
 Alpha virt. eigenvalues --    0.77054   0.77274   0.77602   0.77652   0.78090
 Alpha virt. eigenvalues --    0.78313   0.78735   0.79373   0.79665   0.79919
 Alpha virt. eigenvalues --    0.80134   0.80889   0.81028   0.81404   0.81766
 Alpha virt. eigenvalues --    0.82234   0.82661   0.82957   0.83241   0.84175
 Alpha virt. eigenvalues --    0.84350   0.84593   0.85536   0.85782   0.86297
 Alpha virt. eigenvalues --    0.86672   0.87511   0.88274   0.88871   0.89641
 Alpha virt. eigenvalues --    0.90331   0.90713   0.91034   0.91787   0.91994
 Alpha virt. eigenvalues --    0.92380   0.92805   0.93462   0.93690   0.94912
 Alpha virt. eigenvalues --    0.95421   0.96469   0.97018   0.97737   0.97891
 Alpha virt. eigenvalues --    0.99128   0.99411   0.99902   1.00200   1.00822
 Alpha virt. eigenvalues --    1.01295   1.01501   1.01775   1.02287   1.02649
 Alpha virt. eigenvalues --    1.03166   1.03324   1.04071   1.04413   1.04665
 Alpha virt. eigenvalues --    1.05620   1.06208   1.06689   1.06835   1.07676
 Alpha virt. eigenvalues --    1.08174   1.08222   1.08423   1.09411   1.09561
 Alpha virt. eigenvalues --    1.09939   1.10541   1.10949   1.11409   1.12715
 Alpha virt. eigenvalues --    1.13039   1.13329   1.13625   1.14061   1.14480
 Alpha virt. eigenvalues --    1.14710   1.15610   1.16923   1.17321   1.18482
 Alpha virt. eigenvalues --    1.18620   1.19754   1.22534   1.23328   1.24884
 Alpha virt. eigenvalues --    1.25154   1.25914   1.26263   1.26441   1.26831
 Alpha virt. eigenvalues --    1.28198   1.28393   1.30142   1.31726   1.32138
 Alpha virt. eigenvalues --    1.33363   1.33950   1.34467   1.35607   1.36334
 Alpha virt. eigenvalues --    1.38258   1.38480   1.39323   1.39599   1.40269
 Alpha virt. eigenvalues --    1.41875   1.41961   1.42376   1.42591   1.43399
 Alpha virt. eigenvalues --    1.44971   1.45150   1.45308   1.45459   1.45747
 Alpha virt. eigenvalues --    1.46035   1.46540   1.46620   1.47357   1.47519
 Alpha virt. eigenvalues --    1.48233   1.48626   1.48922   1.49290   1.49482
 Alpha virt. eigenvalues --    1.49804   1.50147   1.50263   1.51018   1.51892
 Alpha virt. eigenvalues --    1.52182   1.52327   1.52841   1.53257   1.53530
 Alpha virt. eigenvalues --    1.54166   1.54381   1.54571   1.55188   1.55564
 Alpha virt. eigenvalues --    1.55803   1.56011   1.56943   1.57491   1.57717
 Alpha virt. eigenvalues --    1.59354   1.60000   1.60129   1.60515   1.60943
 Alpha virt. eigenvalues --    1.61544   1.61967   1.62251   1.62552   1.62848
 Alpha virt. eigenvalues --    1.63439   1.63550   1.64007   1.64172   1.64937
 Alpha virt. eigenvalues --    1.65046   1.65283   1.65720   1.66253   1.66937
 Alpha virt. eigenvalues --    1.67900   1.69120   1.69585   1.70550   1.71254
 Alpha virt. eigenvalues --    1.72242   1.72582   1.72619   1.73058   1.73315
 Alpha virt. eigenvalues --    1.73480   1.73510   1.74839   1.75569   1.76258
 Alpha virt. eigenvalues --    1.77474   1.77522   1.78060   1.78507   1.78693
 Alpha virt. eigenvalues --    1.78985   1.79307   1.79640   1.80118   1.80867
 Alpha virt. eigenvalues --    1.81007   1.81536   1.82060   1.83352   1.84314
 Alpha virt. eigenvalues --    1.85403   1.85550   1.86399   1.87300   1.88121
 Alpha virt. eigenvalues --    1.89121   1.89244   1.89937   1.90441   1.90650
 Alpha virt. eigenvalues --    1.90846   1.90923   1.91200   1.91505   1.91804
 Alpha virt. eigenvalues --    1.91897   1.92313   1.92382   1.92455   1.92895
 Alpha virt. eigenvalues --    1.93368   1.93574   1.93896   1.94218   1.94686
 Alpha virt. eigenvalues --    1.95099   1.95563   1.95989   1.96681   1.96935
 Alpha virt. eigenvalues --    1.97418   1.97702   1.98111   1.98815   1.99004
 Alpha virt. eigenvalues --    1.99900   2.00287   2.01316   2.01686   2.02369
 Alpha virt. eigenvalues --    2.02796   2.02952   2.03312   2.04277   2.04730
 Alpha virt. eigenvalues --    2.05465   2.06017   2.06938   2.07545   2.07868
 Alpha virt. eigenvalues --    2.08791   2.10085   2.10451   2.10889   2.11553
 Alpha virt. eigenvalues --    2.13656   2.15037   2.15330   2.15771   2.16391
 Alpha virt. eigenvalues --    2.18287   2.19241   2.20534   2.21697   2.22723
 Alpha virt. eigenvalues --    2.23308   2.23640   2.25795   2.27613   2.27969
 Alpha virt. eigenvalues --    2.28608   2.29209   2.29526   2.31154   2.31240
 Alpha virt. eigenvalues --    2.31455   2.32884   2.33581   2.34161   2.34779
 Alpha virt. eigenvalues --    2.35006   2.35934   2.36182   2.36477   2.36934
 Alpha virt. eigenvalues --    2.37000   2.37353   2.38704   2.39490   2.41258
 Alpha virt. eigenvalues --    2.42581   2.43123   2.45584   2.45970   2.49257
 Alpha virt. eigenvalues --    2.49735   2.50342   2.50614   2.50757   2.51331
 Alpha virt. eigenvalues --    2.52515   2.53515   2.55189   2.55790   2.56629
 Alpha virt. eigenvalues --    2.57342   2.58202   2.58633   2.58715   2.58861
 Alpha virt. eigenvalues --    2.59466   2.59889   2.60102   2.60444   2.60659
 Alpha virt. eigenvalues --    2.61024   2.61630   2.61787   2.62253   2.62797
 Alpha virt. eigenvalues --    2.63261   2.63701   2.64284   2.64358   2.64954
 Alpha virt. eigenvalues --    2.65158   2.65593   2.66199   2.66493   2.66590
 Alpha virt. eigenvalues --    2.67372   2.67884   2.68382   2.68430   2.68799
 Alpha virt. eigenvalues --    2.69178   2.69694   2.69829   2.70566   2.70790
 Alpha virt. eigenvalues --    2.71635   2.72294   2.73468   2.73745   2.73983
 Alpha virt. eigenvalues --    2.74460   2.74709   2.75205   2.75510   2.77516
 Alpha virt. eigenvalues --    2.77986   2.78272   2.79336   2.80130   2.80483
 Alpha virt. eigenvalues --    2.80913   2.81763   2.82595   2.83573   2.83854
 Alpha virt. eigenvalues --    2.84813   2.85469   2.85882   2.86060   2.86682
 Alpha virt. eigenvalues --    2.87461   2.88671   2.88760   2.89075   2.89827
 Alpha virt. eigenvalues --    2.90009   2.90087   2.90531   2.91071   2.91846
 Alpha virt. eigenvalues --    2.91897   2.92387   2.92987   2.94049   2.94914
 Alpha virt. eigenvalues --    2.97507   2.99187   2.99668   2.99772   3.00440
 Alpha virt. eigenvalues --    3.02554   3.03807   3.05174   3.05477   3.06363
 Alpha virt. eigenvalues --    3.06858   3.08327   3.09279   3.09521   3.11825
 Alpha virt. eigenvalues --    3.13415   3.14836   3.15346   3.15859   3.16069
 Alpha virt. eigenvalues --    3.16537   3.17479   3.19010   3.19678   3.20888
 Alpha virt. eigenvalues --    3.22984   3.26092   3.29963   3.30879   3.31497
 Alpha virt. eigenvalues --    3.32012   3.32280   3.32492   3.33640   3.34093
 Alpha virt. eigenvalues --    3.34410   3.35347   3.35452   3.37333   3.38217
 Alpha virt. eigenvalues --    3.41415   3.41938   3.42311   3.43259   3.44633
 Alpha virt. eigenvalues --    3.45427   3.46539   3.46782   3.46830   3.47218
 Alpha virt. eigenvalues --    3.48326   3.48752   3.48788   3.55072   3.55238
 Alpha virt. eigenvalues --    3.56791   3.59733   3.60192   3.61075   3.61786
 Alpha virt. eigenvalues --    3.66410   3.75581   3.76905   3.78179   3.79261
 Alpha virt. eigenvalues --    3.81382   3.83217   3.83513   3.84341   3.90039
 Alpha virt. eigenvalues --    3.90548   3.94387   3.94627   3.94767   3.95653
 Alpha virt. eigenvalues --    3.96525   3.96642   3.96996   3.99443   4.03273
 Alpha virt. eigenvalues --    4.05973   4.07433   4.09319   4.10037   4.11358
 Alpha virt. eigenvalues --    4.11915   4.12038   4.12087   4.12394   4.13213
 Alpha virt. eigenvalues --    4.15499   4.15759   4.18851   4.26947   4.32509
 Alpha virt. eigenvalues --    4.39426   4.59875   4.76691   4.80688   4.82411
 Alpha virt. eigenvalues --    4.82704   4.82845   4.88548   4.95824   4.96712
 Alpha virt. eigenvalues --    4.97831   5.02347   5.05021   5.20290   5.23731
 Alpha virt. eigenvalues --    5.39121   5.53124   5.66648   5.76848   5.79393
 Alpha virt. eigenvalues --    7.81684  17.22044  17.49790  17.50212  23.40553
 Alpha virt. eigenvalues --   23.47934  23.50901  23.52517  23.59539  23.63638
 Alpha virt. eigenvalues --   23.75934  23.76206  23.77150  23.79566  23.87240
 Alpha virt. eigenvalues --   23.88326  23.89858  23.90486  23.91418  23.92560
 Alpha virt. eigenvalues --   23.93228  23.93347  23.97221  23.99832  24.01620
 Alpha virt. eigenvalues --   24.03135  24.05140  24.05285  24.05360  24.05897
 Alpha virt. eigenvalues --   24.07820  24.08360  24.08563  24.11425  24.15288
 Alpha virt. eigenvalues --   24.18024  24.18109  24.18915  35.59475  35.59596
 Alpha virt. eigenvalues --   49.82944  49.90692  49.92952  49.98322 188.93621
          Condensed to atoms (all electrons):
 Mulliken charges:
               1
     1  C   -0.002975
     2  C   -0.026752
     3  C   -0.112205
     4  C   -0.086291
     5  C   -0.102495
     6  C    0.160199
     7  N   -0.558205
     8  C    0.159070
     9  C   -0.112152
    10  C   -0.086379
    11  C   -0.099778
    12  C   -0.086799
    13  C   -0.109087
    14  C    0.149318
    15  C   -0.109802
    16  C   -0.084973
    17  C   -0.098890
    18  C   -0.087354
    19  C   -0.101999
    20  C   -0.297473
    21  C    0.214412
    22  O   -0.343275
    23  C   -0.049146
    24  C   -0.046311
    25  O   -0.344733
    26  C    0.221975
    27  C   -0.308226
    28  S    0.327839
    29  C    0.011810
    30  C   -0.027594
    31  C   -0.048442
    32  C   -0.132890
    33  C    0.031877
    34  C   -0.146543
    35  C    0.021140
    36  N   -0.221891
    37  C    0.482477
    38  O   -0.326386
    39  O   -0.310766
    40  C   -0.046989
    41  C   -0.086986
    42  H    0.096944
    43  H    0.117683
    44  H    0.103627
    45  H    0.117350
    46  H    0.121120
    47  H    0.095776
    48  H    0.091358
    49  H    0.095303
    50  H    0.120235
    51  H    0.118863
    52  H    0.096314
    53  H    0.092400
    54  H    0.096577
    55  H    0.117626
    56  H    0.124505
    57  H    0.128860
    58  H    0.128929
    59  H    0.124252
    60  H    0.102035
    61  H    0.095371
    62  H    0.161723
    63  H    0.271838
    64  H    0.097478
    65  H    0.107500
 Sum of Mulliken charges =   0.00000
 Mulliken charges with hydrogens summed into heavy atoms:
               1
     1  C   -0.002975
     2  C    0.070193
     3  C    0.005478
     4  C    0.017336
     5  C    0.014854
     6  C    0.160199
     7  N   -0.558205
     8  C    0.159070
     9  C    0.008969
    10  C    0.009397
    11  C   -0.008420
    12  C    0.008504
    13  C    0.011149
    14  C    0.149318
    15  C    0.009060
    16  C    0.011341
    17  C   -0.006490
    18  C    0.009224
    19  C    0.015627
    20  C   -0.297473
    21  C    0.214412
    22  O   -0.343275
    23  C    0.204219
    24  C    0.206871
    25  O   -0.344733
    26  C    0.221975
    27  C   -0.308226
    28  S    0.327839
    29  C    0.011810
    30  C    0.074441
    31  C    0.046929
    32  C   -0.132890
    33  C    0.193601
    34  C   -0.146543
    35  C    0.021140
    36  N   -0.221891
    37  C    0.482477
    38  O   -0.054548
    39  O   -0.310766
    40  C    0.050490
    41  C    0.020513
 Electronic spatial extent (au):  <R**2>=          43865.1550
 Charge=              0.0000 electrons
 Dipole moment (field-independent basis, Debye):
    X=              4.3046    Y=             -3.9515    Z=             -0.5964  Tot=              5.8737
 Quadrupole moment (field-independent basis, Debye-Ang):
   XX=           -287.4692   YY=           -212.4394   ZZ=           -247.0212
   XY=             11.7881   XZ=             -3.6252   YZ=             -8.0060
 Traceless Quadrupole moment (field-independent basis, Debye-Ang):
   XX=            -38.4926   YY=             36.5372   ZZ=              1.9554
   XY=             11.7881   XZ=             -3.6252   YZ=             -8.0060
 Octapole moment (field-independent basis, Debye-Ang**2):
  XXX=            901.8813  YYY=           -127.1065  ZZZ=             -9.2044  XYY=              5.9990
  XXY=            -45.5747  XXZ=             98.1553  XZZ=            -32.1430  YZZ=            -15.9708
  YYZ=            -12.2538  XYZ=             20.5246
 Hexadecapole moment (field-independent basis, Debye-Ang**3):
 XXXX=         -61525.7719 YYYY=          -6210.1441 ZZZZ=          -1081.8498 XXXY=            465.4449
 XXXZ=          -1338.9626 YYYX=            224.2782 YYYZ=           -129.1890 ZZZX=             28.9063
 ZZZY=            -26.6359 XXYY=          -9271.0976 XXZZ=          -9043.3968 YYZZ=          -1347.5266
 XXYZ=            -57.6111 YYXZ=             38.4647 ZZXY=             -7.0473
 N-N= 4.172234181430D+03 E-N=-1.329737203625D+04  KE= 2.110609167393D+03
 Calling FoFJK, ICntrl=      2127 FMM=T ISym2X=0 I1Cent= 0 IOpClX= 0 NMat=1 NMatS=1 NMatT=0.
 ***** Axes restored to original set *****
 -------------------------------------------------------------------
 Center     Atomic                   Forces (Hartrees/Bohr)
 Number     Number              X              Y              Z
 -------------------------------------------------------------------
      1        6           0.007835060   -0.005651438   -0.002749884
      2        6          -0.013027284   -0.002045322   -0.001203294
      3        6           0.006210390   -0.005406738    0.001469601
      4        6          -0.013846126    0.003244258    0.000378621
      5        6           0.006724389    0.002273914   -0.000495710
      6        6          -0.010556797    0.003396022   -0.000643446
      7        7           0.000062575   -0.000164745   -0.000676470
      8        6           0.003879916    0.004282491    0.004298838
      9        6          -0.002968317    0.000060591    0.004914053
     10        6           0.006545746    0.003931212    0.001860694
     11        6          -0.003663537   -0.004501790   -0.004231545
     12        6           0.001555675    0.004826637    0.005903399
     13        6           0.003525285    0.000890058   -0.003880499
     14        6           0.001685376   -0.005553612   -0.003104496
     15        6          -0.001937310    0.000561875   -0.004699997
     16        6           0.004796040   -0.005278574   -0.001295239
     17        6          -0.002365890    0.004840574    0.003850496
     18        6           0.000926092   -0.003857858   -0.005865137
     19        6           0.001534947   -0.002164243    0.004285757
     20        6          -0.009529828   -0.001978392   -0.002065527
     21        6          -0.008761898    0.009996832    0.008480513
     22        8           0.004265061   -0.008151599   -0.005879284
     23        6           0.000940134   -0.004006556   -0.001008450
     24        6           0.000667529   -0.003593404   -0.004087639
     25        8          -0.002912403   -0.008442939   -0.004836562
     26        6           0.008027901    0.013202570    0.004807085
     27        6           0.010562807   -0.002720748    0.002045244
     28       16          -0.002835658    0.012990623    0.005780907
     29        6          -0.000373700   -0.006580834   -0.004818638
     30        6           0.008377730   -0.001231282   -0.002592442
     31        6          -0.010318489   -0.006494816   -0.006605673
     32        6          -0.007818770    0.005310953    0.000472467
     33        6          -0.003011324    0.000425595   -0.001590814
     34        6          -0.038321609    0.023015160   -0.016448381
     35        6          -0.060452999    0.099567530   -0.054108544
     36        7           0.084759335   -0.136375658    0.073063336
     37        6           0.021676524   -0.001846536    0.007406754
     38        8           0.010519700    0.000301470    0.003248958
     39        8          -0.013910089    0.023271178   -0.013049796
     40        6          -0.012194691   -0.003048593   -0.002158303
     41        6           0.010189689    0.003701008    0.005896553
     42        1           0.000779550    0.004811479    0.000409593
     43        1           0.000616196    0.003772916   -0.000105161
     44        1          -0.000575246   -0.002596033   -0.001045221
     45        1          -0.000280679   -0.003677710    0.000115190
     46        1           0.003297908    0.000371354   -0.002731204
     47        1           0.002288308    0.000143300    0.000795069
     48        1           0.001070275    0.000948471    0.000830206
     49        1           0.000002826    0.002202949    0.001457539
     50        1          -0.002425395    0.000750746    0.003119267
     51        1           0.002449749   -0.001227378    0.003037986
     52        1           0.002408588   -0.000751753   -0.000409494
     53        1           0.000915786   -0.001039041   -0.000794414
     54        1          -0.000272933   -0.001624472   -0.001758382
     55        1          -0.001765247    0.000239632   -0.003387795
     56        1           0.000207499    0.003488113    0.001345189
     57        1           0.003560230   -0.000628497    0.000472372
     58        1          -0.003198979   -0.000620530   -0.001000067
     59        1          -0.000498251    0.002632304    0.002362955
     60        1          -0.000369842    0.001562599    0.005089763
     61        1          -0.000660194    0.001537864    0.002689835
     62        1           0.007533677    0.006789001    0.000227362
     63        1          -0.004408712   -0.015489303    0.004363872
     64        1           0.000654842   -0.001241378   -0.002637276
     65        1           0.002208860   -0.001349506   -0.002514690
 -------------------------------------------------------------------
 Cartesian Forces:  Max     0.136375658 RMS     0.016841507

 GradGradGradGradGradGradGradGradGradGradGradGradGradGradGradGradGradGrad
 Berny optimization.
 FormGI is forming the generalized inverse of G from B-inverse, IUseBI=4.
 Internal  Forces:  Max     0.176389544 RMS     0.010736537
 Search for a local minimum.
 Step number   1 out of a maximum of  359
 All quantities printed in internal units (Hartrees-Bohrs-Radians)
 Mixed Optimization -- RFO/linear search
 Second derivative matrix not updated -- first step.
 ITU=  0
     Eigenvalues ---    0.00868   0.00977   0.01016   0.01019   0.01034
     Eigenvalues ---    0.01040   0.01072   0.01088   0.01094   0.01476
     Eigenvalues ---    0.01580   0.01658   0.01663   0.01687   0.01696
     Eigenvalues ---    0.01704   0.01743   0.01766   0.01788   0.01855
     Eigenvalues ---    0.01925   0.01976   0.01994   0.01996   0.02006
     Eigenvalues ---    0.02009   0.02013   0.02020   0.02022   0.02036
     Eigenvalues ---    0.02046   0.02047   0.02048   0.02050   0.02057
     Eigenvalues ---    0.02058   0.02058   0.02062   0.02076   0.02080
     Eigenvalues ---    0.02088   0.02103   0.02107   0.02113   0.02114
     Eigenvalues ---    0.02129   0.02147   0.02148   0.02162   0.02163
     Eigenvalues ---    0.02178   0.02182   0.02190   0.02198   0.02205
     Eigenvalues ---    0.02268   0.02764   0.03531   0.03531   0.04566
     Eigenvalues ---    0.05148   0.05747   0.06295   0.10683   0.11679
     Eigenvalues ---    0.11734   0.12958   0.15993   0.15995   0.15996
     Eigenvalues ---    0.15997   0.15998   0.15998   0.15998   0.15999
     Eigenvalues ---    0.15999   0.15999   0.15999   0.16000   0.16000
     Eigenvalues ---    0.16000   0.16000   0.16000   0.16000   0.16000
     Eigenvalues ---    0.16000   0.16000   0.19976   0.20628   0.21994
     Eigenvalues ---    0.21995   0.21995   0.22000   0.22000   0.22000
     Eigenvalues ---    0.22002   0.22949   0.22954   0.23455   0.23457
     Eigenvalues ---    0.23999   0.24000   0.24925   0.24951   0.24965
     Eigenvalues ---    0.24970   0.24983   0.24983   0.24990   0.24991
     Eigenvalues ---    0.24993   0.24997   0.24999   0.24999   0.25000
     Eigenvalues ---    0.25000   0.25000   0.25000   0.25000   0.28575
     Eigenvalues ---    0.30367   0.32049   0.32348   0.34080   0.34082
     Eigenvalues ---    0.34209   0.34252   0.34596   0.34778   0.34904
     Eigenvalues ---    0.34917   0.34934   0.35061   0.35064   0.35068
     Eigenvalues ---    0.35068   0.35074   0.35089   0.35100   0.35106
     Eigenvalues ---    0.35108   0.35120   0.35124   0.35125   0.35167
     Eigenvalues ---    0.35178   0.35179   0.35180   0.35199   0.35204
     Eigenvalues ---    0.37718   0.38048   0.38129   0.38345   0.39258
     Eigenvalues ---    0.40621   0.40644   0.40892   0.41309   0.41378
     Eigenvalues ---    0.41407   0.41480   0.41608   0.41745   0.44477
     Eigenvalues ---    0.44665   0.44757   0.44774   0.44998   0.45048
     Eigenvalues ---    0.45395   0.45527   0.45588   0.45647   0.45867
     Eigenvalues ---    0.45954   0.46017   0.46051   0.46075   0.46857
     Eigenvalues ---    0.46928   0.48244   0.51483   0.51978   0.52148
     Eigenvalues ---    0.53679   0.55239   0.79313   0.96477
 RFO step:  Lambda=-6.18604630D-02 EMin= 8.67650716D-03
 Linear search not attempted -- first point.
 Maximum step size (   0.300) exceeded in Quadratic search.
    -- Step size scaled by   0.894
 Iteration  1 RMS(Cart)=  0.09029917 RMS(Int)=  0.00117824
 Iteration  2 RMS(Cart)=  0.00253085 RMS(Int)=  0.00004116
 Iteration  3 RMS(Cart)=  0.00000522 RMS(Int)=  0.00004104
 Iteration  4 RMS(Cart)=  0.00000000 RMS(Int)=  0.00004104
 Variable       Old X    -DE/DX   Delta X   Delta X   Delta X     New X
                                 (Linear)    (Quad)   (Total)
    R1        2.65005   0.00108   0.00000   0.00228   0.00228   2.65232
    R2        2.64632   0.00077   0.00000   0.00137   0.00136   2.64768
    R3        2.79082  -0.00600   0.00000  -0.01306  -0.01306   2.77776
    R4        2.64286  -0.00994   0.00000  -0.01673  -0.01673   2.62614
    R5        2.05500  -0.00434   0.00000  -0.00939  -0.00939   2.04560
    R6        2.65014  -0.00134   0.00000  -0.00237  -0.00236   2.64778
    R7        2.05481  -0.00335   0.00000  -0.00724  -0.00724   2.04757
    R8        2.65596  -0.01432   0.00000  -0.02552  -0.02552   2.63044
    R9        2.05503  -0.00244   0.00000  -0.00528  -0.00528   2.04975
   R10        2.65801  -0.00664   0.00000  -0.01212  -0.01211   2.64590
   R11        2.05572  -0.00341   0.00000  -0.00739  -0.00739   2.04833
   R12        2.73866  -0.02165   0.00000  -0.04346  -0.04346   2.69519
   R13        2.74777  -0.02275   0.00000  -0.04633  -0.04633   2.70144
   R14        2.74178  -0.02059   0.00000  -0.04155  -0.04155   2.70023
   R15        2.66204  -0.00683   0.00000  -0.01252  -0.01250   2.64954
   R16        2.66136  -0.00679   0.00000  -0.01249  -0.01248   2.64887
   R17        2.64174  -0.00592   0.00000  -0.01008  -0.01008   2.63166
   R18        2.05530  -0.00339   0.00000  -0.00735  -0.00735   2.04795
   R19        2.62803   0.00184   0.00000   0.00352   0.00351   2.63154
   R20        2.05345  -0.00196   0.00000  -0.00424  -0.00424   2.04921
   R21        2.62993   0.00080   0.00000   0.00172   0.00170   2.63163
   R22        2.05384  -0.00165   0.00000  -0.00356  -0.00356   2.05028
   R23        2.64388  -0.00681   0.00000  -0.01179  -0.01179   2.63209
   R24        2.05404  -0.00217   0.00000  -0.00469  -0.00469   2.04935
   R25        2.05514  -0.00313   0.00000  -0.00678  -0.00678   2.04835
   R26        2.66084  -0.00661   0.00000  -0.01207  -0.01206   2.64878
   R27        2.65942  -0.00622   0.00000  -0.01141  -0.01140   2.64803
   R28        2.64076  -0.00559   0.00000  -0.00951  -0.00951   2.63124
   R29        2.05565  -0.00334   0.00000  -0.00725  -0.00725   2.04840
   R30        2.62912   0.00153   0.00000   0.00298   0.00296   2.63208
   R31        2.05387  -0.00211   0.00000  -0.00456  -0.00456   2.04931
   R32        2.63088   0.00035   0.00000   0.00095   0.00094   2.63182
   R33        2.05353  -0.00158   0.00000  -0.00341  -0.00341   2.05012
   R34        2.64290  -0.00615   0.00000  -0.01063  -0.01063   2.63227
   R35        2.05386  -0.00210   0.00000  -0.00454  -0.00454   2.04932
   R36        2.05473  -0.00291   0.00000  -0.00631  -0.00631   2.04842
   R37        2.61004  -0.00075   0.00000  -0.00126  -0.00124   2.60880
   R38        3.26388   0.00866   0.00000   0.02017   0.02020   3.28408
   R39        2.56653   0.00980   0.00000   0.01481   0.01484   2.58137
   R40        2.68080   0.00464   0.00000   0.00851   0.00855   2.68935
   R41        2.70765   0.00102   0.00000   0.00228   0.00222   2.70986
   R42        2.89005  -0.00649   0.00000  -0.01769  -0.01769   2.87236
   R43        2.06980  -0.00293   0.00000  -0.00650  -0.00650   2.06330
   R44        2.07192   0.00017   0.00000   0.00038   0.00038   2.07231
   R45        2.71165   0.00011   0.00000   0.00049   0.00043   2.71208
   R46        2.07195   0.00002   0.00000   0.00004   0.00004   2.07199
   R47        2.06907  -0.00262   0.00000  -0.00580  -0.00580   2.06327
   R48        2.56789   0.00846   0.00000   0.01285   0.01288   2.58078
   R49        2.61490  -0.00403   0.00000  -0.00676  -0.00680   2.60810
[...]
 Alpha  occ. eigenvalues --   -0.41213  -0.40523  -0.40401  -0.39296  -0.39125
 Alpha  occ. eigenvalues --   -0.38531  -0.38352  -0.38246  -0.38159  -0.38103
 Alpha  occ. eigenvalues --   -0.37647  -0.37425  -0.36966  -0.36575  -0.36126
 Alpha  occ. eigenvalues --   -0.35994  -0.35521  -0.35315  -0.35108  -0.34837
 Alpha  occ. eigenvalues --   -0.33481  -0.32706  -0.32185  -0.31395  -0.28618
 Alpha  occ. eigenvalues --   -0.28435  -0.27705  -0.27366  -0.27281  -0.26474
 Alpha  occ. eigenvalues --   -0.26248  -0.25984  -0.24005  -0.22185  -0.19208
 Alpha virt. eigenvalues --   -0.10409  -0.05775  -0.03359  -0.02840  -0.02532
 Alpha virt. eigenvalues --   -0.01778  -0.01172  -0.01093   0.00748   0.00750
 Alpha virt. eigenvalues --    0.00969   0.01748   0.02110   0.03482   0.03605
 Alpha virt. eigenvalues --    0.03812   0.04622   0.04679   0.05264   0.05570
 Alpha virt. eigenvalues --    0.06236   0.06909   0.07248   0.07271   0.07424
 Alpha virt. eigenvalues --    0.07785   0.08333   0.08744   0.09459   0.09665
 Alpha virt. eigenvalues --    0.09895   0.11093   0.11192   0.11573   0.11745
 Alpha virt. eigenvalues --    0.12507   0.12911   0.13012   0.13044   0.13323
 Alpha virt. eigenvalues --    0.13589   0.14128   0.15121   0.15519   0.15936
 Alpha virt. eigenvalues --    0.16352   0.16628   0.16978   0.17933   0.18354
 Alpha virt. eigenvalues --    0.18675   0.20011   0.21788   0.22465   0.22881
 Alpha virt. eigenvalues --    0.23332   0.23619   0.23885   0.25062   0.25639
 Alpha virt. eigenvalues --    0.25765   0.26162   0.26546   0.26617   0.27052
 Alpha virt. eigenvalues --    0.27581   0.28141   0.28255   0.28895   0.29036
 Alpha virt. eigenvalues --    0.29429   0.30009   0.30342   0.30612   0.30714
 Alpha virt. eigenvalues --    0.31435   0.31968   0.32217   0.33309   0.33869
 Alpha virt. eigenvalues --    0.34125   0.34257   0.34687   0.35356   0.35471
 Alpha virt. eigenvalues --    0.35735   0.36068   0.36482   0.36496   0.36772
 Alpha virt. eigenvalues --    0.37327   0.37369   0.37683   0.37796   0.37972
 Alpha virt. eigenvalues --    0.38094   0.38607   0.38794   0.39053   0.39370
 Alpha virt. eigenvalues --    0.39706   0.40189   0.40484   0.40894   0.41196
 Alpha virt. eigenvalues --    0.41366   0.41373   0.41710   0.41941   0.42008
 Alpha virt. eigenvalues --    0.42209   0.42439   0.42598   0.42878   0.42983
 Alpha virt. eigenvalues --    0.43058   0.43156   0.43215   0.43658   0.43800
 Alpha virt. eigenvalues --    0.44671   0.44750   0.45462   0.46149   0.46257
 Alpha virt. eigenvalues --    0.46924   0.47214   0.47485   0.47725   0.48433
 Alpha virt. eigenvalues --    0.48797   0.49057   0.49559   0.49815   0.50022
 Alpha virt. eigenvalues --    0.50277   0.50613   0.50997   0.51732   0.51969
 Alpha virt. eigenvalues --    0.52475   0.53081   0.54110   0.54454   0.54707
 Alpha virt. eigenvalues --    0.54774   0.55370   0.55490   0.55749   0.55893
 Alpha virt. eigenvalues --    0.56086   0.56304   0.56587   0.56852   0.57394
 Alpha virt. eigenvalues --    0.57559   0.58245   0.58951   0.59342   0.59527
 Alpha virt. eigenvalues --    0.59728   0.59791   0.60027   0.60289   0.60627
 Alpha virt. eigenvalues --    0.60957   0.61208   0.61367   0.61458   0.62039
 Alpha virt. eigenvalues --    0.62294   0.62578   0.62777   0.63140   0.63796
 Alpha virt. eigenvalues --    0.64115   0.64180   0.65072   0.65286   0.65413
 Alpha virt. eigenvalues --    0.65569   0.65937   0.66402   0.66541   0.66825
 Alpha virt. eigenvalues --    0.67436   0.67650   0.68180   0.69592   0.70078
 Alpha virt. eigenvalues --    0.70792   0.71376   0.72344   0.72470   0.72708
 Alpha virt. eigenvalues --    0.73054   0.73373   0.74086   0.75012   0.75439
 Alpha virt. eigenvalues --    0.75725   0.76519   0.76845   0.77494   0.77808
 Alpha virt. eigenvalues --    0.78164   0.78563   0.79304   0.79571   0.79913
 Alpha virt. eigenvalues --    0.80710   0.81062   0.81207   0.81897   0.82037
 Alpha virt. eigenvalues --    0.82456   0.82659   0.83434   0.83546   0.83777
 Alpha virt. eigenvalues --    0.83828   0.84150   0.84644   0.85263   0.85690
 Alpha virt. eigenvalues --    0.86247   0.86391   0.86858   0.88107   0.89297
 Alpha virt. eigenvalues --    0.89536   0.89732   0.89812   0.90773   0.90842
 Alpha virt. eigenvalues --    0.90889   0.91787   0.92017   0.92440   0.93357
 Alpha virt. eigenvalues --    0.93746   0.94264   0.95347   0.95719   0.96900
 Alpha virt. eigenvalues --    0.96970   0.97500   0.97618   0.98374   0.98858
 Alpha virt. eigenvalues --    0.99167   0.99632   1.00140   1.00319   1.00904
 Alpha virt. eigenvalues --    1.01396   1.02273   1.02722   1.03184   1.03349
 Alpha virt. eigenvalues --    1.03647   1.03703   1.04451   1.05235   1.05391
 Alpha virt. eigenvalues --    1.06314   1.06480   1.06878   1.07012   1.07315
 Alpha virt. eigenvalues --    1.07677   1.08140   1.08400   1.08904   1.09738
 Alpha virt. eigenvalues --    1.10145   1.10739   1.11161   1.11734   1.11899
 Alpha virt. eigenvalues --    1.12346   1.12620   1.13226   1.13752   1.14311
 Alpha virt. eigenvalues --    1.14590   1.15502   1.15875   1.16254   1.18771
 Alpha virt. eigenvalues --    1.19458   1.20602   1.20886   1.23428   1.24506
 Alpha virt. eigenvalues --    1.25727   1.26189   1.26232   1.27239   1.28128
 Alpha virt. eigenvalues --    1.29474   1.30245   1.30658   1.31080   1.32152
 Alpha virt. eigenvalues --    1.32391   1.34635   1.34811   1.35797   1.38425
 Alpha virt. eigenvalues --    1.38567   1.39083   1.39567   1.39944   1.39976
 Alpha virt. eigenvalues --    1.40405   1.42742   1.43234   1.43485   1.44012
 Alpha virt. eigenvalues --    1.44470   1.44996   1.45183   1.45323   1.45601
 Alpha virt. eigenvalues --    1.46116   1.46411   1.46441   1.46811   1.47566
 Alpha virt. eigenvalues --    1.47904   1.48471   1.48827   1.49685   1.50187
 Alpha virt. eigenvalues --    1.50438   1.50702   1.50792   1.51285   1.51880
 Alpha virt. eigenvalues --    1.52788   1.52912   1.53108   1.53703   1.54011
 Alpha virt. eigenvalues --    1.54677   1.54920   1.55038   1.55379   1.55558
 Alpha virt. eigenvalues --    1.56010   1.56298   1.57650   1.58142   1.58531
 Alpha virt. eigenvalues --    1.59083   1.59929   1.60315   1.60457   1.61714
 Alpha virt. eigenvalues --    1.61915   1.62234   1.62920   1.63531   1.63776
 Alpha virt. eigenvalues --    1.63830   1.64178   1.65132   1.65502   1.65650
 Alpha virt. eigenvalues --    1.66428   1.66699   1.67414   1.67440   1.67874
 Alpha virt. eigenvalues --    1.68434   1.69074   1.69575   1.69937   1.72134
 Alpha virt. eigenvalues --    1.72661   1.72955   1.73745   1.73985   1.74150
 Alpha virt. eigenvalues --    1.74232   1.74659   1.75614   1.76535   1.76818
 Alpha virt. eigenvalues --    1.76982   1.77090   1.77323   1.77927   1.78524
 Alpha virt. eigenvalues --    1.78989   1.79161   1.80135   1.80288   1.81124
 Alpha virt. eigenvalues --    1.81796   1.81881   1.82802   1.83561   1.85375
 Alpha virt. eigenvalues --    1.86331   1.86729   1.87557   1.87742   1.88631
 Alpha virt. eigenvalues --    1.89563   1.89936   1.90194   1.90456   1.90770
 Alpha virt. eigenvalues --    1.91012   1.91122   1.91279   1.91444   1.91629
 Alpha virt. eigenvalues --    1.92243   1.92440   1.92803   1.93276   1.93574
 Alpha virt. eigenvalues --    1.94177   1.94359   1.94674   1.94866   1.95198
 Alpha virt. eigenvalues --    1.95561   1.96146   1.97493   1.97989   1.97998
 Alpha virt. eigenvalues --    1.99022   1.99626   2.00367   2.00558   2.00759
 Alpha virt. eigenvalues --    2.00944   2.01343   2.02254   2.02654   2.02915
 Alpha virt. eigenvalues --    2.04254   2.05354   2.06141   2.06728   2.07307
 Alpha virt. eigenvalues --    2.07543   2.07650   2.08085   2.09035   2.10055
 Alpha virt. eigenvalues --    2.10418   2.10959   2.11915   2.13471   2.14391
 Alpha virt. eigenvalues --    2.14713   2.15212   2.15865   2.16060   2.17477
 Alpha virt. eigenvalues --    2.19131   2.20356   2.21046   2.23541   2.24924
 Alpha virt. eigenvalues --    2.26651   2.27137   2.28329   2.28549   2.29757
 Alpha virt. eigenvalues --    2.30331   2.30575   2.31052   2.31502   2.32186
 Alpha virt. eigenvalues --    2.33123   2.34054   2.34294   2.35202   2.35441
 Alpha virt. eigenvalues --    2.36192   2.36409   2.36672   2.37635   2.37834
 Alpha virt. eigenvalues --    2.38445   2.39583   2.39952   2.41481   2.43221
 Alpha virt. eigenvalues --    2.43687   2.45077   2.46195   2.47145   2.49796
 Alpha virt. eigenvalues --    2.51388   2.51705   2.52679   2.53088   2.53510
 Alpha virt. eigenvalues --    2.54145   2.54621   2.55143   2.55873   2.57996
 Alpha virt. eigenvalues --    2.58269   2.58449   2.58790   2.59282   2.59480
 Alpha virt. eigenvalues --    2.60360   2.60842   2.61346   2.61651   2.61997
 Alpha virt. eigenvalues --    2.62084   2.62309   2.62648   2.62781   2.63230
 Alpha virt. eigenvalues --    2.63464   2.63773   2.64151   2.64787   2.65105
 Alpha virt. eigenvalues --    2.65205   2.65899   2.66362   2.66737   2.66857
 Alpha virt. eigenvalues --    2.67270   2.67902   2.68166   2.68802   2.69261
 Alpha virt. eigenvalues --    2.69678   2.69909   2.70767   2.71657   2.72244
 Alpha virt. eigenvalues --    2.72373   2.72713   2.73725   2.74412   2.75249
 Alpha virt. eigenvalues --    2.76266   2.76768   2.77722   2.78056   2.78886
 Alpha virt. eigenvalues --    2.79096   2.79389   2.80501   2.81742   2.82405
 Alpha virt. eigenvalues --    2.82686   2.83164   2.83612   2.84396   2.84803
 Alpha virt. eigenvalues --    2.86016   2.86496   2.86881   2.88118   2.88693
 Alpha virt. eigenvalues --    2.88925   2.89561   2.90116   2.90609   2.90823
 Alpha virt. eigenvalues --    2.91111   2.91212   2.91356   2.92080   2.92900
 Alpha virt. eigenvalues --    2.93462   2.95644   2.95903   2.96019   2.96675
 Alpha virt. eigenvalues --    2.97880   2.98123   2.99123   3.02092   3.03746
 Alpha virt. eigenvalues --    3.04890   3.05002   3.06554   3.07336   3.08758
 Alpha virt. eigenvalues --    3.09314   3.09547   3.10006   3.10820   3.13220
 Alpha virt. eigenvalues --    3.13959   3.15137   3.15908   3.17246   3.17593
 Alpha virt. eigenvalues --    3.17867   3.19332   3.20447   3.21173   3.21793
 Alpha virt. eigenvalues --    3.25411   3.26817   3.29025   3.30778   3.31088
 Alpha virt. eigenvalues --    3.31977   3.32229   3.34110   3.34820   3.35391
 Alpha virt. eigenvalues --    3.35408   3.35779   3.36995   3.37303   3.38441
 Alpha virt. eigenvalues --    3.41680   3.42356   3.42759   3.43465   3.45830
 Alpha virt. eigenvalues --    3.46645   3.46654   3.47791   3.48734   3.48836
 Alpha virt. eigenvalues --    3.50106   3.50270   3.54249   3.55991   3.57649
 Alpha virt. eigenvalues --    3.58245   3.58340   3.60750   3.62004   3.62849
 Alpha virt. eigenvalues --    3.63381   3.76100   3.77656   3.82712   3.83160
 Alpha virt. eigenvalues --    3.83640   3.86418   3.86531   3.88905   3.91342
 Alpha virt. eigenvalues --    3.92846   3.94090   3.95921   3.96416   3.96632
 Alpha virt. eigenvalues --    3.97546   3.98603   3.98963   4.03184   4.05444
 Alpha virt. eigenvalues --    4.07710   4.10005   4.10796   4.11264   4.11582
 Alpha virt. eigenvalues --    4.11957   4.13561   4.14711   4.15941   4.16492
 Alpha virt. eigenvalues --    4.17161   4.18771   4.22182   4.39023   4.46742
 Alpha virt. eigenvalues --    4.55071   4.70301   4.78430   4.82863   4.83061
 Alpha virt. eigenvalues --    4.83345   4.83574   4.90563   4.91428   4.92432
 Alpha virt. eigenvalues --    5.03334   5.05417   5.11010   5.26916   5.29438
 Alpha virt. eigenvalues --    5.39189   5.56046   5.67558   5.75450   5.81011
 Alpha virt. eigenvalues --    7.79053  17.20162  17.49776  17.51917  23.40753
 Alpha virt. eigenvalues --   23.48721  23.53084  23.54220  23.61273  23.68684
 Alpha virt. eigenvalues --   23.77140  23.77183  23.77538  23.79740  23.88530
 Alpha virt. eigenvalues --   23.90827  23.90968  23.91329  23.92204  23.92790
 Alpha virt. eigenvalues --   23.93240  23.93284  23.98709  24.01416  24.01943
 Alpha virt. eigenvalues --   24.05288  24.05938  24.06172  24.09439  24.10042
 Alpha virt. eigenvalues --   24.11344  24.11815  24.12977  24.16979  24.17532
 Alpha virt. eigenvalues --   24.18609  24.18772  24.42431  35.64013  35.81638
 Alpha virt. eigenvalues --   49.85260  49.90076  49.91625  50.01901 188.90883
          Condensed to atoms (all electrons):
 Mulliken charges:
               1
     1  C    0.006174
     2  C   -0.028167
     3  C   -0.101729
     4  C   -0.100069
     5  C   -0.100110
     6  C    0.156081
     7  N   -0.498325
     8  C    0.094200
     9  C   -0.077732
    10  C   -0.091134
    11  C   -0.092360
    12  C   -0.090463
    13  C   -0.076857
    14  C    0.092201
    15  C   -0.076720
    16  C   -0.090747
    17  C   -0.091872
    18  C   -0.090149
    19  C   -0.077292
    20  C   -0.294468
    21  C    0.226845
    22  O   -0.367468
    23  C   -0.038498
    24  C   -0.034404
    25  O   -0.368581
    26  C    0.238055
    27  C   -0.309788
    28  S    0.337413
    29  C    0.031130
    30  C   -0.030382
    31  C   -0.060914
    32  C   -0.087043
    33  C    0.053095
    34  C   -0.207026
    35  C   -0.003256
    36  N   -0.239402
    37  C    0.461442
    38  O   -0.301248
    39  O   -0.319483
    40  C   -0.048162
    41  C   -0.110040
    42  H    0.107605
    43  H    0.113852
    44  H    0.101998
    45  H    0.115466
    46  H    0.109442
    47  H    0.097178
    48  H    0.094895
    49  H    0.097608
    50  H    0.110539
    51  H    0.109590
    52  H    0.097680
    53  H    0.095346
    54  H    0.097659
    55  H    0.109740
    56  H    0.127679
    57  H    0.132413
    58  H    0.134422
    59  H    0.128136
    60  H    0.114443
    61  H    0.097572
    62  H    0.128792
    63  H    0.255444
    64  H    0.125333
    65  H    0.104426
 Sum of Mulliken charges =   0.00000
 Mulliken charges with hydrogens summed into heavy atoms:
               1
     1  C    0.006174
     2  C    0.079438
     3  C    0.012124
     4  C    0.001928
     5  C    0.015356
     6  C    0.156081
     7  N   -0.498325
     8  C    0.094200
     9  C    0.031710
    10  C    0.006043
    11  C    0.002535
    12  C    0.007145
    13  C    0.033683
    14  C    0.092201
    15  C    0.032869
    16  C    0.006933
    17  C    0.003474
    18  C    0.007509
    19  C    0.032447
    20  C   -0.294468
    21  C    0.226845
    22  O   -0.367468
    23  C    0.221594
    24  C    0.228153
    25  O   -0.368581
    26  C    0.238055
    27  C   -0.309788
    28  S    0.337413
    29  C    0.031130
    30  C    0.084061
    31  C    0.036659
    32  C   -0.087043
    33  C    0.181887
    34  C   -0.207026
    35  C   -0.003256
    36  N   -0.239402
    37  C    0.461442
    38  O   -0.045804
    39  O   -0.319483
    40  C    0.077171
    41  C   -0.005614
 Electronic spatial extent (au):  <R**2>=          43531.0977
 Charge=              0.0000 electrons
 Dipole moment (field-independent basis, Debye):
    X=              9.2867    Y=             -5.2824    Z=             -1.5916  Tot=             10.8019
 Quadrupole moment (field-independent basis, Debye-Ang):
   XX=           -320.8096   YY=           -218.1089   ZZ=           -238.0068
   XY=             21.1552   XZ=              6.3505   YZ=              0.6925
 Traceless Quadrupole moment (field-independent basis, Debye-Ang):
   XX=            -61.8345   YY=             40.8662   ZZ=             20.9683
   XY=             21.1552   XZ=              6.3505   YZ=              0.6925
 Octapole moment (field-independent basis, Debye-Ang**2):
  XXX=           1270.6991  YYY=           -180.3856  ZZZ=             -8.8021  XYY=             26.0464
  XXY=            -88.3983  XXZ=             -0.0988  XZZ=             20.5298  YZZ=            -22.6238
  YYZ=            -62.5854  XYZ=            -25.4399
 Hexadecapole moment (field-independent basis, Debye-Ang**3):
 XXXX=         -63724.2481 YYYY=          -5982.5870 ZZZZ=          -2048.6004 XXXY=            656.9327
 XXXZ=            288.6045 YYYX=            578.4261 YYYZ=            110.9920 ZZZX=             18.3100
 ZZZY=            -41.6216 XXYY=          -9385.3444 XXZZ=          -8692.0379 YYZZ=          -1378.5340
 XXYZ=           -268.2780 YYXZ=             80.3766 ZZXY=             12.5893
 N-N= 4.184826373453D+03 E-N=-1.332282445194D+04  KE= 2.111784389053D+03
 1\1\GINC-N047\FOpt\RB3LYP\6-311G(d,p)\C34H24N2O4S1\R2532\03-Jun-2021\0
 \\#N B3LYP/6-311G(d,p) OPT\\1ed::11b::1ea\\0,1\C,1.3269838532,-0.47440
 1943,0.1867918588\C,0.4239366876,-1.369336166,-0.4180066269\C,-0.92212
 69046,-1.0626543981,-0.537787248\C,0.8059394014,0.7452054503,0.6566340
 151\C,-0.5352678877,1.0626384869,0.5241665136\C,-1.4303903439,0.160662
 4099,-0.073550586\N,-2.8007953384,0.4761264479,-0.2034389777\C,-3.5320
 038297,0.0531207744,-1.3499898918\C,-4.8092360206,-0.5045224931,-1.209
 0868108\C,-5.5276809903,-0.9042802365,-2.3314168143\C,-4.9819159481,-0
 .7699106887,-3.6067696042\C,-3.7088119118,-0.2206663596,-3.7494308681\
 C,-2.9900962728,0.1970050024,-2.6340584599\C,-3.4686079287,1.218233442
 7,0.8123763185\C,-4.3292406331,2.2693803045,0.4709192266\C,-4.99141821
 4,2.9839861234,1.4640202256\C,-4.7960565991,2.6747289745,2.8088748607\
 C,-3.9353793181,1.6332493955,3.1516919431\C,-3.2820803576,0.9025685532
 ,2.1645724386\C,2.7454120842,-0.7909375773,0.3146523552\C,3.3855777624
 ,-2.010254238,0.2457346853\O,2.7404297066,-3.1977113345,0.0239409123\C
 ,3.5250171882,-4.3396842731,0.390748781\C,4.9298205574,-4.2069034501,-
 0.1627571955\O,5.5809318076,-3.056889376,0.4007890643\C,4.7962257555,-
 1.9413025035,0.4296513009\C,5.2787655514,-0.6641581221,0.651044629\S,3
 .930732276,0.4658743416,0.6056385092\C,6.6362330223,-0.2037905728,0.87
 25436761\C,7.7104969344,-1.1045635344,1.0433696617\C,8.9942700568,-0.6
 388221161,1.2511868557\C,9.2925341062,0.7392576761,1.3051527487\C,10.6
 66291209,1.1139778517,1.5267435127\C,11.2784827328,2.3267203248,1.6291
 708099\C,10.6282666027,3.5850414886,1.5299308878\N,10.1846547049,4.653
 8483925,1.4632030923\C,12.7667172646,2.3383083452,1.8674853856\O,13.35
 13775466,3.5513688577,1.9672580801\O,13.419311929,1.3337763764,1.96686
 51192\C,8.2170196515,1.6389942836,1.137344676\C,6.9345393277,1.1775823
 594,0.9277241025\H,0.7825109848,-2.3190568657,-0.7880660966\H,-1.59207
 3359,-1.7767975391,-0.9998425575\H,1.4619400374,1.4629992632,1.1362769
 426\H,-0.8992001297,2.014590319,0.8892646762\H,-5.2336679909,-0.618943
 1465,-0.2190619877\H,-6.5151696572,-1.3341336666,-2.2054045497\H,-5.54
 21116702,-1.087422847,-4.4783898709\H,-3.2756003696,-0.1016669662,-4.7
 363338233\H,-2.006720385,0.6358656071,-2.751509565\H,-4.4757296009,2.5
 197488997,-0.5727015646\H,-5.6536895548,3.7954879809,1.1836742578\H,-5
 .3085141598,3.2377018411,3.5801003058\H,-3.7806704258,1.3767420144,4.1
 938187321\H,-2.6248982835,0.0849276615,2.4346705177\H,3.0166500346,-5.
 2066788675,-0.0312272595\H,3.5526722127,-4.4322819027,1.4825403819\H,4
 .9021053119,-4.1096390703,-1.2535064266\H,5.5457986353,-5.0643065403,0
 .1082133525\H,7.5253295921,-2.1674052029,1.0141852867\H,9.8002045958,-
 1.3534128788,1.380835848\H,11.3629036672,0.2864358572,1.6352304819\H,1
 2.7047692091,4.2643980255,1.8679192728\H,8.3842390307,2.7068113928,1.1
 676481656\H,6.1407130534,1.9034903512,0.7960023168\\Version=ES64L-G09R
 evD.01\State=1-A\HF=-2119.0698555\RMSD=7.009e-09\RMSF=4.307e-06\Dipole
 =-3.4483851,-2.4058097,-0.6175927\Quadrupole=-41.9906953,26.2911449,15
 .6995505,-21.6561455,-9.3599465,1.6406058\PG=C01 [X(C34H24N2O4S1)]\\@


 HE WHO LOVES TO READ, AND KNOWS HOW TO REFLECT,
 HAS LAID BY A PERPETUAL FEAST FOR HIS OLD AGE.
 -- UNCLE ESEK, "SCRIBNER'S MONTHLY", SEPT. 1880
 Job cpu time:       0 days 18 hours 46 minutes 21.1 seconds.
 File lengths (MBytes):  RWF=    484 Int=      0 D2E=      0 Chk=     53 Scr=      1
 Normal termination of Gaussian 09 at Thu Jun  3 10:42:39 2021.
