 Entering Gaussian System, Link 0=g16
 Input=mex.com
 Output=mex.out
 Initial command:
 /usr/local/apps/gaussian/g16-b01-avx2//g16/l1.exe "/tmp/r2532.885998.maple/Gau-38539.inp" -scrdir="/tmp/r2532.885998.maple/"
 Entering Link 1 = /usr/local/apps/gaussian/g16-b01-avx2//g16/l1.exe PID=     38540.
  
 Copyright (c) 1988-2017, Gaussian, Inc.  All Rights Reserved.
  
 This is part of the Gaussian(R) 16 program.  It is based on
 the Gaussian(R) 09 system (copyright 2009, Gaussian, Inc.),
 the Gaussian(R) 03 system (copyright 2003, Gaussian, Inc.),
 the Gaussian(R) 98 system (copyright 1998, Gaussian, Inc.),
 the Gaussian(R) 94 system (copyright 1995, Gaussian, Inc.),
 the Gaussian 92(TM) system (copyright 1992, Gaussian, Inc.),
 the Gaussian 90(TM) system (copyright 1990, Gaussian, Inc.),
 the Gaussian 88(TM) system (copyright 1988, Gaussian, Inc.),
 the Gaussian 86(TM) system (copyright 1986, Carnegie Mellon
 University), and the Gaussian 82(TM) system (copyright 1983,
 Carnegie Mellon University). Gaussian is a federally registered
 trademark of Gaussian, Inc.
  
 This software contains proprietary and confidential information,
 including trade secrets, belonging to Gaussian, Inc.
  
 This software is provided under written license and may be
 used, copied, transmitted, or stored only in accord with that
 written license.
  
 The following legend is applicable only to US Government
 contracts under FAR:
  
                    RESTRICTED RIGHTS LEGEND
  
 Use, reproduction and disclosure by the US Government is
 subject to restrictions as set forth in subparagraphs (a)
 and (c) of the Commercial Computer Software - Restricted
 Rights clause in FAR 52.227-19.
  
 Gaussian, Inc.
 340 Quinnipiac St., Bldg. 40, Wallingford CT 06492
  
  
 ---------------------------------------------------------------
 Warning -- This program may not be used in any manner that
 competes with the business of Gaussian, Inc. or will provide
 assistance to any competitor of Gaussian, Inc.  The licensee
 of this program is prohibited from giving any competitor of
 Gaussian, Inc. access to this program.  By using this program,
 the user acknowledges that Gaussian, Inc. is engaged in the
 business of creating and licensing software in the field of
 computational chemistry and represents and warrants to the
 licensee that it is not a competitor of Gaussian, Inc. and that
 it will not use this program in any manner prohibited above.
 ---------------------------------------------------------------
  

 Cite this work as:
 Gaussian 16, Revision B.01,
 M. J. Frisch, G. W. Trucks, H. B. Schlegel, G. E. Scuseria, 
 M. A. Robb, J. R. Cheeseman, G. Scalmani, V. Barone, 
 G. A. Petersson, H. Nakatsuji, X. Li, M. Caricato, A. V. Marenich, 
 J. Bloino, B. G. Janesko, R. Gomperts, B. Mennucci, H. P. Hratchian, 
 J. V. Ortiz, A. F. Izmaylov, J. L. Sonnenberg, D. Williams-Young, 
 F. Ding, F. Lipparini, F. Egidi, J. Goings, B. Peng, A. Petrone, 
 T. Henderson, D. Ranasinghe, V. G. Zakrzewski, J. Gao, N. Rega, 
 G. Zheng, W. Liang, M. Hada, M. Ehara, K. Toyota, R. Fukuda, 
 J. Hasegawa, M. Ishida, T. Nakajima, Y. Honda, O. Kitao, H. Nakai, 
 T. Vreven, K. Throssell, J. A. Montgomery, Jr., J. E. Peralta, 
 F. Ogliaro, M. J. Bearpark, J. J. Heyd, E. N. Brothers, K. N. Kudin, 
 V. N. Staroverov, T. A. Keith, R. Kobayashi, J. Normand, 
 K. Raghavachari, A. P. Rendell, J. C. Burant, S. S. Iyengar, 
 J. Tomasi, M. Cossi, J. M. Millam, M. Klene, C. Adamo, R. Cammi, 
 J. W. Ochterski, R. L. Martin, K. Morokuma, O. Farkas, 
 J. B. Foresman, and D. J. Fox, Gaussian, Inc., Wallingford CT, 2016.
 
 ******************************************
 Gaussian 16:  ES64L-G16RevB.01 20-Dec-2017
                 8-Jul-2021 
 ******************************************
 %mem=8gb
 ------------------------------------
 #N TD(NStates=10) PBE1PBE/6-31G(d,p)
 ------------------------------------
 1/38=1,172=1/1;
 2/12=2,17=6,18=5,40=1/2;
 3/5=1,6=6,7=101,11=9,25=1,30=1,74=-13/1,2,3,8;
 4//1;
 5/5=2,38=5/2;
 8/6=1,10=2,108=10/1;
 9/41=10,42=1,70=2/14;
 6/7=2,8=2,9=2,10=2/1;
 99/5=1,9=1/99;
 ----
 Name
 ----
 Symbolic Z-matrix:
 Charge =  0 Multiplicity = 1
 6                    -8.18249   7.12857  -1.10595 
 8                    -7.42423   6.34312  -0.19744 
 6                    -7.5943    4.99053  -0.21021 
 6                    -8.46962   4.30292  -1.0542 
 6                    -8.55607   2.91276  -0.98279 
 6                    -7.79456   2.18938  -0.06524 
 7                    -7.91427   0.76933   0.02046 
 6                    -6.77422  -0.05077   0.00591 
 6                    -6.76859  -1.29719   0.65948 
 6                    -5.6441   -2.1045    0.64103 
 6                    -4.46769  -1.71623  -0.02414 
 6                    -4.47861  -0.4671   -0.66724 
 6                    -5.59988   0.34647  -0.65834 
 1                    -5.57691   1.29358  -1.18167 
 1                    -3.60271  -0.13803  -1.21567 
 6                    -3.29801  -2.59042  -0.04035 
 16                   -1.67925  -1.94831  -0.23798 
 6                    -0.95647  -3.54292  -0.13865 
 6                    -1.93757  -4.49439   0.04475 
 6                    -3.24434  -3.96144   0.09347 
 1                    -4.13075  -4.57135   0.20492 
 1                    -1.7165   -5.548     0.15327 
 6                     0.46609  -3.75546  -0.25352 
 16                    1.62597  -2.48934   0.09096 
 6                     2.98241  -3.54288  -0.26359 
 6                     2.52668  -4.8025   -0.6028 
 6                     1.12366  -4.92082  -0.59969 
 1                     0.5986   -5.82419  -0.87889 
 1                     3.19202  -5.60749  -0.88481 
 6                     4.3482   -3.09528  -0.18096 
 6                     5.48985  -3.87575  -0.10766 
 6                     6.68132  -3.1349   -0.04921 
 6                     6.49506  -1.76173  -0.0655 
 16                    4.77339  -1.40069  -0.18014 
 6                     7.47084  -0.70005  -0.00417 
 6                     7.11059   0.64547   0.0181 
 6                     8.02713   1.70904   0.07505 
 6                     9.40489   1.52292   0.11638 
 6                     9.83934   0.14915   0.09659 
 6                     8.89384  -0.95133   0.03749 
 7                     9.48662  -2.14553   0.02673 
 16                    11.10304  -1.88727   0.08721 
 7                     11.10984  -0.25003   0.12872 
 6                     10.41614   2.5474    0.17702 
 6                     10.31804   3.90763   0.20624 
 6                     9.08674   4.62455   0.17921 
 7                     8.07401   5.18156   0.15628 
 6                     11.52734   4.77024   0.2703 
 8                     12.68259   4.06085   0.29514 
 1                     13.39522   4.71429   0.33615 
 8                     11.50277   5.97554   0.29799 
 1                     11.42922   2.16391   0.20395 
 1                     7.62185   2.7108    0.08811 
 1                     6.0591    0.90584  -0.00696 
 1                     7.6642   -3.57476   0.01645 
 1                     5.45769  -4.95616  -0.07315 
 1                    -5.66562  -3.04124   1.18587 
 1                    -7.64961  -1.62062   1.19872 
 6                    -9.22024   0.20113   0.11517 
 6                    -10.13961   0.68271   1.04701 
 6                    -11.42803   0.15491   1.12779 
 6                    -11.80829  -0.88771   0.2795 
 6                    -10.88714  -1.38091  -0.65371 
 6                    -9.61665  -0.83716  -0.74146 
 1                    -8.91767  -1.21786  -1.47661 
 1                    -11.19929  -2.18243  -1.31221 
 8                    -13.03519  -1.48295   0.27622 
 6                    -14.01309  -1.02042   1.19658 
 1                    -13.68725  -1.1581    2.2338 
 1                    -14.25482   0.03541   1.02963 
 1                    -14.90055  -1.62474   1.01626 
 1                    -12.11458   0.55781   1.86016 
 1                    -9.85      1.48633   1.71356 
 6                    -6.92769   2.8905    0.78659 
 6                    -6.82057   4.26876   0.70812 
 1                    -6.15277   4.81606   1.36226 
 1                    -6.33444   2.34484   1.51064 
 1                    -9.23205   2.38559  -1.64544 
 1                    -9.07899   4.83012  -1.77583 
 1                    -7.89437   8.1615   -0.91818 
 1                    -7.95366   6.87344  -2.14684 
 1                    -9.25887   7.01634  -0.93299 
 
 Stoichiometry    C42H28N4O4S4
 Framework group  C1[X(C42H28N4O4S4)]
 Deg. of freedom   240
 Full point group                 C1      NOp   1
 Largest Abelian subgroup         C1      NOp   1
 Largest concise Abelian subgroup C1      NOp   1
                         Standard orientation:                         
 ---------------------------------------------------------------------
 Center     Atomic      Atomic             Coordinates (Angstroms)
 Number     Number       Type             X           Y           Z
 ---------------------------------------------------------------------
      1          6           0       -8.182487    7.128568   -1.105953
      2          8           0       -7.424227    6.343120   -0.197444
      3          6           0       -7.594299    4.990534   -0.210206
      4          6           0       -8.469618    4.302920   -1.054202
      5          6           0       -8.556066    2.912758   -0.982790
      6          6           0       -7.794556    2.189376   -0.065242
      7          7           0       -7.914267    0.769334    0.020459
      8          6           0       -6.774216   -0.050771    0.005910
      9          6           0       -6.768593   -1.297194    0.659475
     10          6           0       -5.644102   -2.104499    0.641031
     11          6           0       -4.467692   -1.716233   -0.024144
     12          6           0       -4.478614   -0.467096   -0.667243
     13          6           0       -5.599876    0.346473   -0.658344
     14          1           0       -5.576908    1.293575   -1.181667
     15          1           0       -3.602711   -0.138034   -1.215670
     16          6           0       -3.298009   -2.590422   -0.040351
     17         16           0       -1.679247   -1.948306   -0.237981
     18          6           0       -0.956467   -3.542922   -0.138653
     19          6           0       -1.937570   -4.494386    0.044753
     20          6           0       -3.244337   -3.961437    0.093471
     21          1           0       -4.130751   -4.571350    0.204916
     22          1           0       -1.716499   -5.548000    0.153267
     23          6           0        0.466090   -3.755461   -0.253515
     24         16           0        1.625967   -2.489340    0.090960
     25          6           0        2.982405   -3.542881   -0.263590
     26          6           0        2.526680   -4.802500   -0.602800
     27          6           0        1.123658   -4.920823   -0.599690
     28          1           0        0.598595   -5.824193   -0.878894
     29          1           0        3.192024   -5.607489   -0.884805
     30          6           0        4.348203   -3.095277   -0.180959
     31          6           0        5.489847   -3.875750   -0.107659
     32          6           0        6.681322   -3.134897   -0.049206
     33          6           0        6.495056   -1.761727   -0.065502
     34         16           0        4.773393   -1.400692   -0.180140
     35          6           0        7.470840   -0.700054   -0.004172
     36          6           0        7.110588    0.645469    0.018098
     37          6           0        8.027128    1.709041    0.075048
     38          6           0        9.404895    1.522915    0.116380
     39          6           0        9.839338    0.149149    0.096587
     40          6           0        8.893835   -0.951326    0.037490
     41          7           0        9.486622   -2.145534    0.026726
     42         16           0       11.103043   -1.887273    0.087207
     43          7           0       11.109838   -0.250030    0.128721
     44          6           0       10.416144    2.547404    0.177016
     45          6           0       10.318038    3.907627    0.206239
     46          6           0        9.086736    4.624554    0.179205
     47          7           0        8.074009    5.181561    0.156275
     48          6           0       11.527344    4.770239    0.270304
     49          8           0       12.682594    4.060852    0.295141
     50          1           0       13.395218    4.714294    0.336154
     51          8           0       11.502773    5.975544    0.297992
     52          1           0       11.429221    2.163911    0.203953
     53          1           0        7.621846    2.710797    0.088106
     54          1           0        6.059098    0.905844   -0.006957
     55          1           0        7.664200   -3.574760    0.016447
     56          1           0        5.457693   -4.956156   -0.073146
     57          1           0       -5.665615   -3.041239    1.185874
     58          1           0       -7.649607   -1.620623    1.198724
     59          6           0       -9.220243    0.201134    0.115168
     60          6           0      -10.139608    0.682707    1.047013
     61          6           0      -11.428031    0.154911    1.127792
     62          6           0      -11.808286   -0.887709    0.279495
     63          6           0      -10.887142   -1.380914   -0.653708
     64          6           0       -9.616649   -0.837159   -0.741459
     65          1           0       -8.917672   -1.217857   -1.476612
     66          1           0      -11.199291   -2.182431   -1.312207
     67          8           0      -13.035193   -1.482953    0.276218
     68          6           0      -14.013089   -1.020418    1.196578
     69          1           0      -13.687246   -1.158105    2.233800
     70          1           0      -14.254822    0.035405    1.029631
     71          1           0      -14.900545   -1.624742    1.016261
     72          1           0      -12.114575    0.557814    1.860159
     73          1           0       -9.849997    1.486332    1.713561
     74          6           0       -6.927688    2.890499    0.786592
     75          6           0       -6.820574    4.268759    0.708116
     76          1           0       -6.152769    4.816060    1.362263
     77          1           0       -6.334436    2.344841    1.510642
     78          1           0       -9.232054    2.385586   -1.645441
     79          1           0       -9.078993    4.830121   -1.775834
     80          1           0       -7.894368    8.161501   -0.918177
     81          1           0       -7.953658    6.873436   -2.146840
     82          1           0       -9.258874    7.016340   -0.932988
 ---------------------------------------------------------------------
 Rotational constants (GHZ):           0.0651937           0.0099802           0.0087139
 Standard basis: 6-31G(d,p) (6D, 7F)
 There are   966 symmetry adapted cartesian basis functions of A   symmetry.
 There are   966 symmetry adapted basis functions of A   symmetry.
   966 basis functions,  1804 primitive gaussians,   966 cartesian basis functions
   202 alpha electrons      202 beta electrons
       nuclear repulsion energy      6545.1772242524 Hartrees.
 NAtoms=   82 NActive=   82 NUniq=   82 SFac= 1.00D+00 NAtFMM=   60 NAOKFM=T Big=T
 Integral buffers will be    131072 words long.
 Regular integral format.
 Two-electron integral symmetry is turned on.
 One-electron integrals computed using PRISM.
 NBasis=   966 RedAO= T EigKep=  2.46D-04  NBF=   966
 NBsUse=   966 1.00D-06 EigRej= -1.00D+00 NBFU=   966
 ExpMin= 1.17D-01 ExpMax= 2.19D+04 ExpMxC= 3.30D+03 IAcc=3 IRadAn=         5 AccDes= 0.00D+00
 Harris functional with IExCor= 1009 and IRadAn=       5 diagonalized for initial guess.
 HarFok:  IExCor= 1009 AccDes= 0.00D+00 IRadAn=         5 IDoV= 1 UseB2=F ITyADJ=14
 ICtDFT=  3500011 ScaDFX=  1.000000  1.000000  1.000000  1.000000
 FoFCou: FMM=F IPFlag=           0 FMFlag=      100000 FMFlg1=        2001
         NFxFlg=           0 DoJE=T BraDBF=F KetDBF=T FulRan=T
         wScrn=  0.000000 ICntrl=       500 IOpCl=  0 I1Cent=   200000004 NGrid=           0
         NMat0=    1 NMatS0=      1 NMatT0=    0 NMatD0=    1 NMtDS0=    0 NMtDT0=    0
 Petite list used in FoFCou.
 Requested convergence on RMS density matrix=1.00D-08 within 128 cycles.
 Requested convergence on MAX density matrix=1.00D-06.
 Requested convergence on             energy=1.00D-06.
 No special actions if energy rises.
 Integral accuracy reduced to 1.0D-05 until final iterations.
 Initial convergence to 1.0D-05 achieved.  Increase integral accuracy.
 SCF Done:  E(RPBE1PBE) =  -3726.94294535     A.U. after   17 cycles
            NFock= 17  Conv=0.74D-08     -V/T= 2.0062
 DoSCS=F DFT=T ScalE2(SS,OS)=  1.000000  1.000000
 ExpMin= 1.17D-01 ExpMax= 2.19D+04 ExpMxC= 3.30D+03 IAcc=3 IRadAn=         5 AccDes= 0.00D+00
 HarFok:  IExCor=  205 AccDes= 0.00D+00 IRadAn=         5 IDoV=-2 UseB2=F ITyADJ=14
 ICtDFT= 12500011 ScaDFX=  1.000000  1.000000  1.000000  1.000000
 GSVD:  LWork=       -5460 too small for GESVD, short by       25550 words or       25550 for optimal perf.
 Range of M.O.s used for correlation:    71   966
 NBasis=   966 NAE=   202 NBE=   202 NFC=    70 NFV=     0
 NROrb=    896 NOA=   132 NOB=   132 NVA=   764 NVB=   764

 **** Warning!!: The smallest alpha delta epsilon is  0.65840165D-01

 Orbital symmetries:
       Occupied  (A) (A) (A) (A) (A) (A) (A) (A) (A) (A) (A) (A)
                 (A) (A) (A) (A) (A) (A) (A) (A) (A) (A) (A) (A)
                 (A) (A) (A) (A) (A) (A) (A) (A) (A) (A) (A) (A)
                 (A) (A) (A) (A) (A) (A) (A) (A) (A) (A) (A) (A)
                 (A) (A) (A) (A) (A) (A) (A) (A) (A) (A) (A) (A)
                 (A) (A) (A) (A) (A) (A) (A) (A) (A) (A) (A) (A)
                 (A) (A) (A) (A) (A) (A) (A) (A) (A) (A) (A) (A)
                 (A) (A) (A) (A) (A) (A) (A) (A) (A) (A) (A) (A)
                 (A) (A) (A) (A) (A) (A) (A) (A) (A) (A) (A) (A)
                 (A) (A) (A) (A) (A) (A) (A) (A) (A) (A) (A) (A)
                 (A) (A) (A) (A) (A) (A) (A) (A) (A) (A) (A) (A)
                 (A) (A) (A) (A) (A) (A) (A) (A) (A) (A) (A) (A)
                 (A) (A) (A) (A) (A) (A) (A) (A) (A) (A) (A) (A)
                 (A) (A) (A) (A) (A) (A) (A) (A) (A) (A) (A) (A)
                 (A) (A) (A) (A) (A) (A) (A) (A) (A) (A) (A) (A)
                 (A) (A) (A) (A) (A) (A) (A) (A) (A) (A) (A) (A)
                 (A) (A) (A) (A) (A) (A) (A) (A) (A) (A)
       Virtual   (A) (A) (A) (A) (A) (A) (A) (A) (A) (A) (A) (A)
                 (A) (A) (A) (A) (A) (A) (A) (A) (A) (A) (A) (A)
                 (A) (A) (A) (A) (A) (A) (A) (A) (A) (A) (A) (A)
                 (A) (A) (A) (A) (A) (A) (A) (A) (A) (A) (A) (A)
                 (A) (A) (A) (A) (A) (A) (A) (A) (A) (A) (A) (A)
                 (A) (A) (A) (A) (A) (A) (A) (A) (A) (A) (A) (A)
                 (A) (A) (A) (A) (A) (A) (A) (A) (A) (A) (A) (A)
                 (A) (A) (A) (A) (A) (A) (A) (A) (A) (A) (A) (A)
                 (A) (A) (A) (A) (A) (A) (A) (A) (A) (A) (A) (A)
                 (A) (A) (A) (A) (A) (A) (A) (A) (A) (A) (A) (A)
                 (A) (A) (A) (A) (A) (A) (A) (A) (A) (A) (A) (A)
                 (A) (A) (A) (A) (A) (A) (A) (A) (A) (A) (A) (A)
                 (A) (A) (A) (A) (A) (A) (A) (A) (A) (A) (A) (A)
                 (A) (A) (A) (A) (A) (A) (A) (A) (A) (A) (A) (A)
                 (A) (A) (A) (A) (A) (A) (A) (A) (A) (A) (A) (A)
                 (A) (A) (A) (A) (A) (A) (A) (A) (A) (A) (A) (A)
                 (A) (A) (A) (A) (A) (A) (A) (A) (A) (A) (A) (A)
                 (A) (A) (A) (A) (A) (A) (A) (A) (A) (A) (A) (A)
                 (A) (A) (A) (A) (A) (A) (A) (A) (A) (A) (A) (A)
                 (A) (A) (A) (A) (A) (A) (A) (A) (A) (A) (A) (A)
                 (A) (A) (A) (A) (A) (A) (A) (A) (A) (A) (A) (A)
                 (A) (A) (A) (A) (A) (A) (A) (A) (A) (A) (A) (A)
                 (A) (A) (A) (A) (A) (A) (A) (A) (A) (A) (A) (A)
                 (A) (A) (A) (A) (A) (A) (A) (A) (A) (A) (A) (A)
                 (A) (A) (A) (A) (A) (A) (A) (A) (A) (A) (A) (A)
                 (A) (A) (A) (A) (A) (A) (A) (A) (A) (A) (A) (A)
                 (A) (A) (A) (A) (A) (A) (A) (A) (A) (A) (A) (A)
                 (A) (A) (A) (A) (A) (A) (A) (A) (A) (A) (A) (A)
                 (A) (A) (A) (A) (A) (A) (A) (A) (A) (A) (A) (A)
                 (A) (A) (A) (A) (A) (A) (A) (A) (A) (A) (A) (A)
                 (A) (A) (A) (A) (A) (A) (A) (A) (A) (A) (A) (A)
                 (A) (A) (A) (A) (A) (A) (A) (A) (A) (A) (A) (A)
                 (A) (A) (A) (A) (A) (A) (A) (A) (A) (A) (A) (A)
                 (A) (A) (A) (A) (A) (A) (A) (A) (A) (A) (A) (A)
                 (A) (A) (A) (A) (A) (A) (A) (A) (A) (A) (A) (A)
                 (A) (A) (A) (A) (A) (A) (A) (A) (A) (A) (A) (A)
                 (A) (A) (A) (A) (A) (A) (A) (A) (A) (A) (A) (A)
                 (A) (A) (A) (A) (A) (A) (A) (A) (A) (A) (A) (A)
                 (A) (A) (A) (A) (A) (A) (A) (A) (A) (A) (A) (A)
                 (A) (A) (A) (A) (A) (A) (A) (A) (A) (A) (A) (A)
                 (A) (A) (A) (A) (A) (A) (A) (A) (A) (A) (A) (A)
                 (A) (A) (A) (A) (A) (A) (A) (A) (A) (A) (A) (A)
                 (A) (A) (A) (A) (A) (A) (A) (A) (A) (A) (A) (A)
                 (A) (A) (A) (A) (A) (A) (A) (A) (A) (A) (A) (A)
                 (A) (A) (A) (A) (A) (A) (A) (A) (A) (A) (A) (A)
                 (A) (A) (A) (A) (A) (A) (A) (A) (A) (A) (A) (A)
                 (A) (A) (A) (A) (A) (A) (A) (A) (A) (A) (A) (A)
                 (A) (A) (A) (A) (A) (A) (A) (A) (A) (A) (A) (A)
                 (A) (A) (A) (A) (A) (A) (A) (A) (A) (A) (A) (A)
                 (A) (A) (A) (A) (A) (A) (A) (A) (A) (A) (A) (A)
                 (A) (A) (A) (A) (A) (A) (A) (A) (A) (A) (A) (A)
                 (A) (A) (A) (A) (A) (A) (A) (A) (A) (A) (A) (A)
                 (A) (A) (A) (A) (A) (A) (A) (A) (A) (A) (A) (A)
                 (A) (A) (A) (A) (A) (A) (A) (A) (A) (A) (A) (A)
                 (A) (A) (A) (A) (A) (A) (A) (A) (A) (A) (A) (A)
                 (A) (A) (A) (A) (A) (A) (A) (A) (A) (A) (A) (A)
                 (A) (A) (A) (A) (A) (A) (A) (A) (A) (A) (A) (A)
                 (A) (A) (A) (A) (A) (A) (A) (A) (A) (A) (A) (A)
                 (A) (A) (A) (A) (A) (A) (A) (A) (A) (A) (A) (A)
                 (A) (A) (A) (A) (A) (A) (A) (A) (A) (A) (A) (A)
                 (A) (A) (A) (A) (A) (A) (A) (A) (A) (A) (A) (A)
                 (A) (A) (A) (A) (A) (A) (A) (A) (A) (A) (A) (A)
                 (A) (A) (A) (A) (A) (A) (A) (A) (A) (A) (A) (A)
                 (A) (A) (A) (A) (A) (A) (A) (A)
    40 initial guesses have been made.
 Convergence on wavefunction:    0.001000000000000
 Iteration     1 Dimension    40 NMult     0 NNew     40
 CISAX will form    40 AO SS matrices at one time.
 New state      4 was old state      5
 New state      5 was old state      4
 New state      9 was old state     11
 Iteration     2 Dimension    60 NMult    40 NNew     20
 Iteration     3 Dimension    80 NMult    60 NNew     20
 Iteration     4 Dimension   100 NMult    80 NNew     20
 Iteration     5 Dimension   118 NMult   100 NNew     18
 Iteration     6 Dimension   122 NMult   118 NNew      4
 Iteration     7 Dimension   124 NMult   122 NNew      2
 ***********************************************************************
 Excited states from <AA,BB:AA,BB> singles matrix:
 ***********************************************************************
 
 Ground to excited state transition densities written to RWF  633
 Ground to excited state transition electric dipole moments (Au):
       state          X           Y           Z        Dip. S.      Osc.
         1        -3.1269     -0.5972     -0.0418     10.1361      0.3839
         2        -3.2870     -1.7869     -0.1047     14.0081      0.7183
         3        -3.1016      0.4130      0.0168      9.7905      0.6395
         4        -0.2506      1.1642      0.0652      1.4224      0.0969
         5         0.3662     -1.5826     -0.0765      2.6445      0.1915
         6         0.1130      0.1812     -0.0097      0.0457      0.0036
         7        -1.9269     -0.7253     -0.0244      4.2395      0.3340
         8         0.0683      0.1199     -0.0072      0.0191      0.0016
         9         1.0946     -1.7047     -0.0916      4.1123      0.3502
        10         0.7674     -0.7138     -0.0383      1.0999      0.0967
 Ground to excited state transition velocity dipole moments (Au):
       state          X           Y           Z        Dip. S.      Osc.
         1         0.1733      0.0331      0.0026      0.0311      0.3652
         2         0.2509      0.1346      0.0080      0.0811      0.7031
         3         0.2996     -0.0386     -0.0005      0.0912      0.6209
         4         0.0170     -0.1192     -0.0062      0.0145      0.0948
         5        -0.0410      0.1700      0.0074      0.0306      0.1879
         6        -0.0131     -0.0208      0.0010      0.0006      0.0034
         7         0.2204      0.0835      0.0025      0.0556      0.3135
         8        -0.0129     -0.0183     -0.0001      0.0005      0.0027
         9        -0.1432      0.2168      0.0120      0.0677      0.3532
        10        -0.0998      0.0945      0.0064      0.0189      0.0958
 Ground to excited state transition magnetic dipole moments (Au):
       state          X           Y           Z
         1         0.0129     -0.1070      2.0307
         2         0.0023     -0.1971      3.4035
         3         0.0508     -0.1477      3.4940
         4         0.0261      0.0421     -0.5608
         5        -0.0434     -0.0556      0.8260
         6         0.0043      0.0259     -0.0718
         7        -0.0037     -0.1852      3.1499
         8         0.0280     -0.0037     -0.4801
         9        -0.0838      0.0345      0.6121
        10        -0.0568      0.0685     -1.5559
 Ground to excited state transition velocity quadrupole moments (Au):
       state          XX          YY          ZZ          XY          XZ          YZ
         1         1.1463     -0.0124     -0.0132      0.5232      0.0439      0.0142
         2         3.8785      0.0084     -0.0163      1.4418      0.1086      0.0055
         3        -1.3918      0.2674     -0.0336      0.8215      0.0397      0.0715
         4        -2.8979     -0.1909      0.0017     -1.5245     -0.0840      0.0155
         5         3.5808      0.2938      0.0071      1.7334      0.0859     -0.0203
         6        -0.0127     -0.1420      0.0013     -0.0242     -0.0411      0.0073
         7         2.2691      0.2222     -0.0160      0.4574      0.0556      0.0286
         8        -0.4115     -0.3419      0.0053     -0.1952     -0.0073     -0.0230
         9         3.2948      0.7984      0.0132      3.0297      0.0871     -0.0155
        10         4.3470     -0.6591      0.0447     -2.2124     -0.1442     -0.0795
 <0|del|b> * <b|rxdel|0> + <0|del|b> * <b|delr+rdel|0>
 Rotatory Strengths (R) in cgs (10**-40 erg-esu-cm/Gauss)
       state          XX          YY          ZZ    R(velocity)    E-M Angle
         1        11.0099     54.0634    -14.4784     16.8650       89.35
         2       -11.7404     80.8228    -58.4503      3.5440       89.93
         3        18.9019    127.8471     -7.3467     46.4674       88.95
         4        -6.9358    -18.3523     17.8885     -2.4665       90.90
         5       -16.8687    -13.2865     19.8775     -3.4259       90.62
         6        -4.4821     -0.5947      1.0767     -1.3334      110.65
         7       -33.2772     36.4750    -53.7088    -16.8370       90.65
         8         0.0752     -0.0731     -1.3148     -0.4376       91.21
         9        89.4807    -41.0122    100.0609     49.5098       80.41
        10       -11.1177     47.8164    -25.2764      3.8074       89.43
 1/2[<0|r|b>*<b|rxdel|0> + (<0|rxdel|b>*<b|r|0>)*]
 Rotatory Strengths (R) in cgs (10**-40 erg-esu-cm/Gauss)
       state          XX          YY          ZZ     R(length)
         1        28.4417    -45.1708     60.0731     14.4480
         2         5.3138   -249.0802    251.9131      2.7156
         3       111.4844     43.1401    -41.4735     37.7170
         4         4.6232    -34.6375     25.8488     -1.3885
         5        11.2420    -62.2236     44.6759     -2.1019
         6        -0.3435     -3.3133     -0.4921     -1.3829
         7        -5.0947    -94.9832     54.2630    -15.2716
         8        -1.3523      0.3108     -2.4446     -1.1620
         9        64.8697     41.5502     39.6494     48.6897
        10        30.7991     34.5853    -42.1899      7.7315
  1/2[<0|del|b>*<b|r|0> + (<0|r|b>*<b|del|0>)*] (Au)
       state          X           Y           Z        Dip. S.   Osc.(frdel)
         1        -0.5418     -0.0198     -0.0001      0.5617      0.3745
         2        -0.8246     -0.2406     -0.0008      1.0660      0.7107
         3        -0.9292     -0.0159     -0.0000      0.9452      0.6301
         4        -0.0043     -0.1387     -0.0004      0.1434      0.0956
         5        -0.0150     -0.2690     -0.0006      0.2845      0.1897
         6        -0.0015     -0.0038     -0.0000      0.0053      0.0035
         7        -0.4247     -0.0606     -0.0001      0.4854      0.3236
         8        -0.0009     -0.0022      0.0000      0.0031      0.0021
         9        -0.1568     -0.3696     -0.0011      0.5275      0.3517
        10        -0.0766     -0.0675     -0.0002      0.1443      0.0962

 Excitation energies and oscillator strengths:
 
 Excited State   1:      Singlet-A      1.5460 eV  801.99 nm  f=0.3839  <S**2>=0.000
     202 ->203         0.70511
 This state for optimization and/or second-order correction.
 Total Energy, E(TD-HF/TD-DFT) =  -3726.88613258    
 Copying the excited state density for this state as the 1-particle RhoCI density.
 
 Excited State   2:      Singlet-A      2.0930 eV  592.36 nm  f=0.7183  <S**2>=0.000
     201 ->203         0.69656
 
 Excited State   3:      Singlet-A      2.6660 eV  465.05 nm  f=0.6395  <S**2>=0.000
     200 ->203        -0.24532
     201 ->204         0.10890
     202 ->204         0.60389
     202 ->205        -0.21703
 
 Excited State   4:      Singlet-A      2.7812 eV  445.79 nm  f=0.0969  <S**2>=0.000
     200 ->203         0.59324
     201 ->205         0.14423
     202 ->204         0.29744
     202 ->205         0.15246
 
 Excited State   5:      Singlet-A      2.9553 eV  419.53 nm  f=0.1915  <S**2>=0.000
     200 ->203        -0.24291
     202 ->204         0.13049
     202 ->205         0.64140
 
 Excited State   6:      Singlet-A      3.1911 eV  388.53 nm  f=0.0036  <S**2>=0.000
     199 ->203         0.70418
 
 Excited State   7:      Singlet-A      3.2159 eV  385.53 nm  f=0.3340  <S**2>=0.000
     201 ->204         0.66945
     202 ->204        -0.14105
 
 Excited State   8:      Singlet-A      3.3294 eV  372.39 nm  f=0.0016  <S**2>=0.000
     198 ->203         0.58202
     200 ->203        -0.12896
     201 ->205         0.31715
 
 Excited State   9:      Singlet-A      3.4760 eV  356.69 nm  f=0.3502  <S**2>=0.000
     198 ->203        -0.28681
     201 ->205         0.53528
     202 ->206         0.29665
 
 Excited State  10:      Singlet-A      3.5876 eV  345.59 nm  f=0.0967  <S**2>=0.000
     191 ->203        -0.10870
     192 ->203         0.13549
     193 ->203         0.19101
     198 ->203         0.14022
     201 ->205        -0.18346
     202 ->206         0.57261
 SavETr:  write IOETrn=   770 NScale= 10 NData=  16 NLR=1 NState=   10 LETran=     190.

 **********************************************************************

            Population analysis using the SCF Density.

 **********************************************************************

 Orbital symmetries:
       Occupied  (A) (A) (A) (A) (A) (A) (A) (A) (A) (A) (A) (A)
                 (A) (A) (A) (A) (A) (A) (A) (A) (A) (A) (A) (A)
                 (A) (A) (A) (A) (A) (A) (A) (A) (A) (A) (A) (A)
                 (A) (A) (A) (A) (A) (A) (A) (A) (A) (A) (A) (A)
                 (A) (A) (A) (A) (A) (A) (A) (A) (A) (A) (A) (A)
                 (A) (A) (A) (A) (A) (A) (A) (A) (A) (A) (A) (A)
                 (A) (A) (A) (A) (A) (A) (A) (A) (A) (A) (A) (A)
                 (A) (A) (A) (A) (A) (A) (A) (A) (A) (A) (A) (A)
                 (A) (A) (A) (A) (A) (A) (A) (A) (A) (A) (A) (A)
                 (A) (A) (A) (A) (A) (A) (A) (A) (A) (A) (A) (A)
                 (A) (A) (A) (A) (A) (A) (A) (A) (A) (A) (A) (A)
                 (A) (A) (A) (A) (A) (A) (A) (A) (A) (A) (A) (A)
                 (A) (A) (A) (A) (A) (A) (A) (A) (A) (A) (A) (A)
                 (A) (A) (A) (A) (A) (A) (A) (A) (A) (A) (A) (A)
                 (A) (A) (A) (A) (A) (A) (A) (A) (A) (A) (A) (A)
                 (A) (A) (A) (A) (A) (A) (A) (A) (A) (A) (A) (A)
                 (A) (A) (A) (A) (A) (A) (A) (A) (A) (A)
       Virtual   (A) (A) (A) (A) (A) (A) (A) (A) (A) (A) (A) (A)
                 (A) (A) (A) (A) (A) (A) (A) (A) (A) (A) (A) (A)
                 (A) (A) (A) (A) (A) (A) (A) (A) (A) (A) (A) (A)
                 (A) (A) (A) (A) (A) (A) (A) (A) (A) (A) (A) (A)
                 (A) (A) (A) (A) (A) (A) (A) (A) (A) (A) (A) (A)
                 (A) (A) (A) (A) (A) (A) (A) (A) (A) (A) (A) (A)
                 (A) (A) (A) (A) (A) (A) (A) (A) (A) (A) (A) (A)
                 (A) (A) (A) (A) (A) (A) (A) (A) (A) (A) (A) (A)
                 (A) (A) (A) (A) (A) (A) (A) (A) (A) (A) (A) (A)
                 (A) (A) (A) (A) (A) (A) (A) (A) (A) (A) (A) (A)
                 (A) (A) (A) (A) (A) (A) (A) (A) (A) (A) (A) (A)
                 (A) (A) (A) (A) (A) (A) (A) (A) (A) (A) (A) (A)
                 (A) (A) (A) (A) (A) (A) (A) (A) (A) (A) (A) (A)
                 (A) (A) (A) (A) (A) (A) (A) (A) (A) (A) (A) (A)
                 (A) (A) (A) (A) (A) (A) (A) (A) (A) (A) (A) (A)
                 (A) (A) (A) (A) (A) (A) (A) (A) (A) (A) (A) (A)
                 (A) (A) (A) (A) (A) (A) (A) (A) (A) (A) (A) (A)
                 (A) (A) (A) (A) (A) (A) (A) (A) (A) (A) (A) (A)
                 (A) (A) (A) (A) (A) (A) (A) (A) (A) (A) (A) (A)
                 (A) (A) (A) (A) (A) (A) (A) (A) (A) (A) (A) (A)
                 (A) (A) (A) (A) (A) (A) (A) (A) (A) (A) (A) (A)
                 (A) (A) (A) (A) (A) (A) (A) (A) (A) (A) (A) (A)
                 (A) (A) (A) (A) (A) (A) (A) (A) (A) (A) (A) (A)
                 (A) (A) (A) (A) (A) (A) (A) (A) (A) (A) (A) (A)
                 (A) (A) (A) (A) (A) (A) (A) (A) (A) (A) (A) (A)
                 (A) (A) (A) (A) (A) (A) (A) (A) (A) (A) (A) (A)
                 (A) (A) (A) (A) (A) (A) (A) (A) (A) (A) (A) (A)
                 (A) (A) (A) (A) (A) (A) (A) (A) (A) (A) (A) (A)
                 (A) (A) (A) (A) (A) (A) (A) (A) (A) (A) (A) (A)
                 (A) (A) (A) (A) (A) (A) (A) (A) (A) (A) (A) (A)
                 (A) (A) (A) (A) (A) (A) (A) (A) (A) (A) (A) (A)
                 (A) (A) (A) (A) (A) (A) (A) (A) (A) (A) (A) (A)
                 (A) (A) (A) (A) (A) (A) (A) (A) (A) (A) (A) (A)
                 (A) (A) (A) (A) (A) (A) (A) (A) (A) (A) (A) (A)
                 (A) (A) (A) (A) (A) (A) (A) (A) (A) (A) (A) (A)
                 (A) (A) (A) (A) (A) (A) (A) (A) (A) (A) (A) (A)
                 (A) (A) (A) (A) (A) (A) (A) (A) (A) (A) (A) (A)
                 (A) (A) (A) (A) (A) (A) (A) (A) (A) (A) (A) (A)
                 (A) (A) (A) (A) (A) (A) (A) (A) (A) (A) (A) (A)
                 (A) (A) (A) (A) (A) (A) (A) (A) (A) (A) (A) (A)
                 (A) (A) (A) (A) (A) (A) (A) (A) (A) (A) (A) (A)
                 (A) (A) (A) (A) (A) (A) (A) (A) (A) (A) (A) (A)
                 (A) (A) (A) (A) (A) (A) (A) (A) (A) (A) (A) (A)
                 (A) (A) (A) (A) (A) (A) (A) (A) (A) (A) (A) (A)
                 (A) (A) (A) (A) (A) (A) (A) (A) (A) (A) (A) (A)
                 (A) (A) (A) (A) (A) (A) (A) (A) (A) (A) (A) (A)
                 (A) (A) (A) (A) (A) (A) (A) (A) (A) (A) (A) (A)
                 (A) (A) (A) (A) (A) (A) (A) (A) (A) (A) (A) (A)
                 (A) (A) (A) (A) (A) (A) (A) (A) (A) (A) (A) (A)
                 (A) (A) (A) (A) (A) (A) (A) (A) (A) (A) (A) (A)
                 (A) (A) (A) (A) (A) (A) (A) (A) (A) (A) (A) (A)
                 (A) (A) (A) (A) (A) (A) (A) (A) (A) (A) (A) (A)
                 (A) (A) (A) (A) (A) (A) (A) (A) (A) (A) (A) (A)
                 (A) (A) (A) (A) (A) (A) (A) (A) (A) (A) (A) (A)
                 (A) (A) (A) (A) (A) (A) (A) (A) (A) (A) (A) (A)
                 (A) (A) (A) (A) (A) (A) (A) (A) (A) (A) (A) (A)
                 (A) (A) (A) (A) (A) (A) (A) (A) (A) (A) (A) (A)
                 (A) (A) (A) (A) (A) (A) (A) (A) (A) (A) (A) (A)
                 (A) (A) (A) (A) (A) (A) (A) (A) (A) (A) (A) (A)
                 (A) (A) (A) (A) (A) (A) (A) (A) (A) (A) (A) (A)
                 (A) (A) (A) (A) (A) (A) (A) (A) (A) (A) (A) (A)
                 (A) (A) (A) (A) (A) (A) (A) (A) (A) (A) (A) (A)
                 (A) (A) (A) (A) (A) (A) (A) (A) (A) (A) (A) (A)
                 (A) (A) (A) (A) (A) (A) (A) (A)
 The electronic state is 1-A.
 Alpha  occ. eigenvalues --  -89.14303 -89.08128 -89.07985 -89.07110 -19.27708
 Alpha  occ. eigenvalues --  -19.26215 -19.26085 -19.21793 -14.45367 -14.45100
 Alpha  occ. eigenvalues --  -14.43596 -14.39627 -10.37661 -10.31177 -10.30959
 Alpha  occ. eigenvalues --  -10.30249 -10.30091 -10.29990 -10.29596 -10.29574
 Alpha  occ. eigenvalues --  -10.29410 -10.29288 -10.29181 -10.29086 -10.29038
 Alpha  occ. eigenvalues --  -10.28624 -10.28594 -10.28572 -10.28205 -10.27887
 Alpha  occ. eigenvalues --  -10.27727 -10.27649 -10.27459 -10.27192 -10.26780
 Alpha  occ. eigenvalues --  -10.25940 -10.25798 -10.25713 -10.25514 -10.25375
 Alpha  occ. eigenvalues --  -10.25115 -10.24550 -10.24494 -10.24472 -10.24461
 Alpha  occ. eigenvalues --  -10.24423 -10.24416 -10.24364 -10.24360 -10.24266
 Alpha  occ. eigenvalues --  -10.23995 -10.23874 -10.23829 -10.23786  -8.10588
 Alpha  occ. eigenvalues --   -8.04908  -8.04752  -8.03879  -6.04449  -6.03862
 Alpha  occ. eigenvalues --   -6.03630  -5.98654  -5.98498  -5.98288  -5.98132
 Alpha  occ. eigenvalues --   -5.97899  -5.97745  -5.97621  -5.97257  -5.96881
 Alpha  occ. eigenvalues --   -1.14139  -1.09810  -1.09692  -1.06460  -1.04911
 Alpha  occ. eigenvalues --   -0.99448  -0.94071  -0.93559  -0.93204  -0.92437
 Alpha  occ. eigenvalues --   -0.91120  -0.90111  -0.88520  -0.88462  -0.86613
 Alpha  occ. eigenvalues --   -0.85957  -0.82469  -0.80896  -0.80173  -0.79206
 Alpha  occ. eigenvalues --   -0.78980  -0.78137  -0.77855  -0.77730  -0.77218
 Alpha  occ. eigenvalues --   -0.76615  -0.76426  -0.75572  -0.75052  -0.72761
 Alpha  occ. eigenvalues --   -0.72429  -0.70823  -0.69607  -0.67484  -0.66466
 Alpha  occ. eigenvalues --   -0.65423  -0.64843  -0.64654  -0.63817  -0.63362
 Alpha  occ. eigenvalues --   -0.62982  -0.61804  -0.61348  -0.60885  -0.59391
 Alpha  occ. eigenvalues --   -0.58104  -0.57128  -0.56004  -0.55904  -0.55776
 Alpha  occ. eigenvalues --   -0.55521  -0.54845  -0.54359  -0.54050  -0.53972
 Alpha  occ. eigenvalues --   -0.53098  -0.52096  -0.51074  -0.50865  -0.50818
 Alpha  occ. eigenvalues --   -0.49784  -0.49678  -0.48885  -0.48696  -0.48565
 Alpha  occ. eigenvalues --   -0.48493  -0.47242  -0.47179  -0.46978  -0.46531
 Alpha  occ. eigenvalues --   -0.46291  -0.45980  -0.44971  -0.44420  -0.44319
 Alpha  occ. eigenvalues --   -0.43912  -0.43807  -0.43737  -0.43500  -0.43396
 Alpha  occ. eigenvalues --   -0.43072  -0.42868  -0.42497  -0.42126  -0.41984
 Alpha  occ. eigenvalues --   -0.41961  -0.41160  -0.40853  -0.40411  -0.40273
 Alpha  occ. eigenvalues --   -0.40153  -0.39844  -0.39713  -0.39641  -0.39584
 Alpha  occ. eigenvalues --   -0.38808  -0.38622  -0.38256  -0.37914  -0.37604
 Alpha  occ. eigenvalues --   -0.37437  -0.37230  -0.37056  -0.36483  -0.36419
 Alpha  occ. eigenvalues --   -0.35705  -0.34961  -0.34719  -0.34431  -0.34247
 Alpha  occ. eigenvalues --   -0.34048  -0.33935  -0.33777  -0.33537  -0.32534
 Alpha  occ. eigenvalues --   -0.32160  -0.31298  -0.29903  -0.29511  -0.29087
 Alpha  occ. eigenvalues --   -0.28068  -0.27600  -0.27423  -0.27294  -0.26769
 Alpha  occ. eigenvalues --   -0.26720  -0.26351  -0.25300  -0.24142  -0.23170
 Alpha  occ. eigenvalues --   -0.20466  -0.18231
 Alpha virt. eigenvalues --   -0.11647  -0.06934  -0.06439  -0.03435  -0.01495
 Alpha virt. eigenvalues --   -0.01159  -0.00485   0.00101   0.00287   0.00333
 Alpha virt. eigenvalues --    0.00689   0.00834   0.01718   0.03069   0.03230
 Alpha virt. eigenvalues --    0.03599   0.04020   0.05116   0.06293   0.06605
 Alpha virt. eigenvalues --    0.07025   0.07364   0.08555   0.09261   0.09507
 Alpha virt. eigenvalues --    0.09859   0.10215   0.11179   0.11337   0.11395
 Alpha virt. eigenvalues --    0.11574   0.11812   0.12513   0.13284   0.13418
 Alpha virt. eigenvalues --    0.13773   0.14081   0.14356   0.15264   0.15598
 Alpha virt. eigenvalues --    0.15678   0.15791   0.16244   0.16367   0.16446
 Alpha virt. eigenvalues --    0.16568   0.16677   0.17196   0.17532   0.17680
 Alpha virt. eigenvalues --    0.17958   0.18434   0.18990   0.19011   0.19092
 Alpha virt. eigenvalues --    0.19137   0.19769   0.20365   0.20578   0.21338
 Alpha virt. eigenvalues --    0.21392   0.21613   0.21625   0.22682   0.23024
 Alpha virt. eigenvalues --    0.23281   0.23612   0.24521   0.25083   0.25234
 Alpha virt. eigenvalues --    0.25315   0.25540   0.26147   0.26223   0.26757
 Alpha virt. eigenvalues --    0.26989   0.27528   0.27992   0.28195   0.28885
 Alpha virt. eigenvalues --    0.29591   0.30321   0.30573   0.30858   0.31206
 Alpha virt. eigenvalues --    0.32165   0.33258   0.33697   0.33846   0.34027
 Alpha virt. eigenvalues --    0.34414   0.34544   0.34853   0.35145   0.35557
 Alpha virt. eigenvalues --    0.35719   0.35977   0.36524   0.36988   0.37180
 Alpha virt. eigenvalues --    0.37397   0.38199   0.38594   0.39381   0.39542
 Alpha virt. eigenvalues --    0.40126   0.41111   0.42421   0.42661   0.42881
 Alpha virt. eigenvalues --    0.44508   0.44924   0.45629   0.45818   0.46234
 Alpha virt. eigenvalues --    0.47558   0.47776   0.47871   0.48482   0.49020
 Alpha virt. eigenvalues --    0.49387   0.49680   0.50542   0.50717   0.50950
 Alpha virt. eigenvalues --    0.51555   0.52083   0.52209   0.52275   0.52928
 Alpha virt. eigenvalues --    0.52991   0.53687   0.53951   0.54081   0.54415
 Alpha virt. eigenvalues --    0.54560   0.54806   0.55052   0.55150   0.55190
 Alpha virt. eigenvalues --    0.55481   0.55666   0.55911   0.56067   0.56467
 Alpha virt. eigenvalues --    0.56651   0.56759   0.57324   0.57756   0.57918
 Alpha virt. eigenvalues --    0.58004   0.58199   0.58833   0.58865   0.59284
 Alpha virt. eigenvalues --    0.59435   0.59776   0.59993   0.60241   0.60271
 Alpha virt. eigenvalues --    0.60465   0.60527   0.60612   0.60720   0.60830
 Alpha virt. eigenvalues --    0.61009   0.61220   0.61239   0.61536   0.61789
 Alpha virt. eigenvalues --    0.62250   0.62371   0.62975   0.63004   0.63086
 Alpha virt. eigenvalues --    0.63241   0.63321   0.63817   0.64214   0.64421
 Alpha virt. eigenvalues --    0.64922   0.65106   0.65417   0.65601   0.65916
 Alpha virt. eigenvalues --    0.66098   0.66412   0.67164   0.67388   0.67632
 Alpha virt. eigenvalues --    0.67735   0.67968   0.68570   0.68754   0.69167
 Alpha virt. eigenvalues --    0.69989   0.70282   0.70732   0.71024   0.71356
 Alpha virt. eigenvalues --    0.71977   0.72930   0.73142   0.73950   0.74781
 Alpha virt. eigenvalues --    0.74929   0.75384   0.75629   0.76594   0.77200
 Alpha virt. eigenvalues --    0.77706   0.78276   0.78592   0.78697   0.78902
 Alpha virt. eigenvalues --    0.79263   0.79561   0.80276   0.80676   0.80720
 Alpha virt. eigenvalues --    0.81294   0.81483   0.81602   0.81803   0.82685
 Alpha virt. eigenvalues --    0.82929   0.83571   0.83621   0.83995   0.84457
 Alpha virt. eigenvalues --    0.84516   0.84618   0.84753   0.84908   0.85063
 Alpha virt. eigenvalues --    0.85599   0.85687   0.85947   0.86069   0.86271
 Alpha virt. eigenvalues --    0.86597   0.86669   0.86777   0.87164   0.87195
 Alpha virt. eigenvalues --    0.87449   0.88205   0.88515   0.88621   0.88660
 Alpha virt. eigenvalues --    0.88986   0.89203   0.89367   0.89698   0.89748
 Alpha virt. eigenvalues --    0.90614   0.91482   0.92096   0.92220   0.92893
 Alpha virt. eigenvalues --    0.93026   0.93287   0.93368   0.93810   0.94019
 Alpha virt. eigenvalues --    0.94194   0.95058   0.95356   0.95513   0.95730
 Alpha virt. eigenvalues --    0.95998   0.96661   0.96686   0.96924   0.97382
 Alpha virt. eigenvalues --    0.97604   0.98474   0.98685   0.99035   1.00256
 Alpha virt. eigenvalues --    1.00701   1.00803   1.01074   1.01460   1.02001
 Alpha virt. eigenvalues --    1.02083   1.02212   1.02880   1.03013   1.03756
 Alpha virt. eigenvalues --    1.04036   1.04605   1.04925   1.05296   1.05653
 Alpha virt. eigenvalues --    1.05758   1.05956   1.06509   1.06927   1.07127
 Alpha virt. eigenvalues --    1.07232   1.07439   1.08212   1.09050   1.09980
 Alpha virt. eigenvalues --    1.10752   1.10977   1.11688   1.12330   1.13406
 Alpha virt. eigenvalues --    1.13796   1.14193   1.14746   1.14991   1.15449
 Alpha virt. eigenvalues --    1.15681   1.16105   1.16510   1.17078   1.17869
 Alpha virt. eigenvalues --    1.17972   1.19195   1.19935   1.20466   1.20625
 Alpha virt. eigenvalues --    1.20742   1.21263   1.21581   1.21905   1.22571
 Alpha virt. eigenvalues --    1.22720   1.24109   1.24388   1.24761   1.25311
 Alpha virt. eigenvalues --    1.25443   1.25522   1.26839   1.27179   1.27952
 Alpha virt. eigenvalues --    1.28122   1.28557   1.29731   1.29770   1.30247
 Alpha virt. eigenvalues --    1.30742   1.31048   1.31186   1.32241   1.32829
 Alpha virt. eigenvalues --    1.33537   1.33826   1.33969   1.34524   1.35387
 Alpha virt. eigenvalues --    1.35689   1.36204   1.36435   1.37462   1.37469
 Alpha virt. eigenvalues --    1.37520   1.38336   1.38424   1.38666   1.39331
 Alpha virt. eigenvalues --    1.39514   1.40132   1.40587   1.40665   1.40708
 Alpha virt. eigenvalues --    1.41347   1.41366   1.41953   1.42743   1.42830
 Alpha virt. eigenvalues --    1.43836   1.44169   1.44399   1.44793   1.45407
 Alpha virt. eigenvalues --    1.46112   1.46410   1.47427   1.48346   1.48652
 Alpha virt. eigenvalues --    1.49455   1.51130   1.51343   1.52790   1.52808
 Alpha virt. eigenvalues --    1.53135   1.53499   1.54118   1.55429   1.56436
 Alpha virt. eigenvalues --    1.57322   1.57650   1.57886   1.58636   1.59575
 Alpha virt. eigenvalues --    1.62279   1.62857   1.63879   1.64025   1.65988
 Alpha virt. eigenvalues --    1.66057   1.66393   1.67137   1.67530   1.67809
 Alpha virt. eigenvalues --    1.69417   1.70347   1.71318   1.72074   1.72643
 Alpha virt. eigenvalues --    1.72727   1.73282   1.74118   1.74811   1.76002
 Alpha virt. eigenvalues --    1.76759   1.77050   1.77307   1.77335   1.78320
 Alpha virt. eigenvalues --    1.78849   1.79980   1.80295   1.80580   1.80853
 Alpha virt. eigenvalues --    1.81101   1.81637   1.81753   1.81947   1.82810
 Alpha virt. eigenvalues --    1.83551   1.83836   1.84348   1.84748   1.85120
 Alpha virt. eigenvalues --    1.85687   1.86562   1.86860   1.87100   1.87749
 Alpha virt. eigenvalues --    1.87845   1.87924   1.88353   1.88761   1.88972
 Alpha virt. eigenvalues --    1.89181   1.89212   1.90051   1.90574   1.91092
 Alpha virt. eigenvalues --    1.91741   1.92201   1.92870   1.92968   1.93188
 Alpha virt. eigenvalues --    1.93573   1.94120   1.94573   1.94892   1.95387
 Alpha virt. eigenvalues --    1.95892   1.95913   1.96145   1.96383   1.96820
 Alpha virt. eigenvalues --    1.97421   1.97588   1.97801   1.98192   1.98437
 Alpha virt. eigenvalues --    1.99150   1.99357   1.99808   1.99890   2.00067
 Alpha virt. eigenvalues --    2.00234   2.00485   2.01224   2.01397   2.01700
 Alpha virt. eigenvalues --    2.02036   2.02754   2.02792   2.03026   2.03271
 Alpha virt. eigenvalues --    2.03748   2.04755   2.04874   2.05085   2.06030
 Alpha virt. eigenvalues --    2.06509   2.07104   2.07538   2.08272   2.09053
 Alpha virt. eigenvalues --    2.09383   2.11008   2.11122   2.12028   2.13469
 Alpha virt. eigenvalues --    2.13895   2.14408   2.14958   2.15556   2.16220
 Alpha virt. eigenvalues --    2.16895   2.17084   2.18000   2.18420   2.18569
 Alpha virt. eigenvalues --    2.19286   2.19962   2.21214   2.21563   2.22414
 Alpha virt. eigenvalues --    2.22454   2.22883   2.23774   2.24695   2.25493
 Alpha virt. eigenvalues --    2.25714   2.26106   2.26530   2.27676   2.28332
 Alpha virt. eigenvalues --    2.28642   2.28905   2.29284   2.29389   2.29716
 Alpha virt. eigenvalues --    2.30715   2.30868   2.31690   2.32560   2.33339
 Alpha virt. eigenvalues --    2.33417   2.33806   2.34630   2.34940   2.35601
 Alpha virt. eigenvalues --    2.36451   2.36908   2.37949   2.39837   2.40926
 Alpha virt. eigenvalues --    2.41419   2.41878   2.42243   2.42290   2.42616
 Alpha virt. eigenvalues --    2.42753   2.42989   2.43187   2.44187   2.44357
 Alpha virt. eigenvalues --    2.45033   2.45209   2.45622   2.46063   2.46214
 Alpha virt. eigenvalues --    2.46614   2.46766   2.47286   2.47593   2.48350
 Alpha virt. eigenvalues --    2.49021   2.49121   2.49699   2.49949   2.50248
 Alpha virt. eigenvalues --    2.50883   2.50903   2.51737   2.52377   2.52648
 Alpha virt. eigenvalues --    2.52961   2.53648   2.54177   2.54575   2.54724
 Alpha virt. eigenvalues --    2.55427   2.55976   2.56036   2.56332   2.56569
 Alpha virt. eigenvalues --    2.56710   2.58683   2.58971   2.59187   2.59829
 Alpha virt. eigenvalues --    2.60043   2.60696   2.61182   2.61364   2.61646
 Alpha virt. eigenvalues --    2.62003   2.63380   2.63731   2.64141   2.64355
 Alpha virt. eigenvalues --    2.65083   2.65418   2.65526   2.66171   2.66862
 Alpha virt. eigenvalues --    2.66988   2.67077   2.67147   2.67894   2.68570
 Alpha virt. eigenvalues --    2.69741   2.70526   2.70947   2.71405   2.71664
 Alpha virt. eigenvalues --    2.72152   2.72299   2.73177   2.74210   2.74993
 Alpha virt. eigenvalues --    2.75288   2.75595   2.75808   2.77159   2.77593
 Alpha virt. eigenvalues --    2.79433   2.79618   2.80352   2.80633   2.81888
 Alpha virt. eigenvalues --    2.82699   2.82913   2.83485   2.84914   2.85071
 Alpha virt. eigenvalues --    2.86199   2.86584   2.87525   2.87776   2.88048
 Alpha virt. eigenvalues --    2.88269   2.90754   2.91565   2.92491   2.95584
 Alpha virt. eigenvalues --    2.96157   2.97727   2.98324   2.98869   2.99045
 Alpha virt. eigenvalues --    2.99425   3.00643   3.03602   3.03936   3.04229
 Alpha virt. eigenvalues --    3.04995   3.05882   3.08813   3.09700   3.09945
 Alpha virt. eigenvalues --    3.11055   3.12950   3.15625   3.16334   3.16438
 Alpha virt. eigenvalues --    3.19118   3.19195   3.19668   3.22081   3.23003
 Alpha virt. eigenvalues --    3.23168   3.24306   3.26507   3.27264   3.28149
 Alpha virt. eigenvalues --    3.28379   3.29181   3.29509   3.31221   3.32562
 Alpha virt. eigenvalues --    3.33675   3.35393   3.36292   3.37305   3.37434
 Alpha virt. eigenvalues --    3.38807   3.41353   3.42212   3.42344   3.43003
 Alpha virt. eigenvalues --    3.43496   3.47212   3.47431   3.47865   3.54596
 Alpha virt. eigenvalues --    3.54824   3.55109   3.57356   3.63824   3.67931
 Alpha virt. eigenvalues --    3.71340   3.74202   3.82870   3.86009   3.86079
 Alpha virt. eigenvalues --    3.88287   3.94251   3.98405   3.99368   4.02582
 Alpha virt. eigenvalues --    4.03220   4.04729   4.08946   4.11296   4.11349
 Alpha virt. eigenvalues --    4.11457   4.13724   4.15190   4.16988   4.17796
 Alpha virt. eigenvalues --    4.18480   4.19500   4.19636   4.19877   4.20455
 Alpha virt. eigenvalues --    4.20627   4.20957   4.22765   4.22875   4.23359
 Alpha virt. eigenvalues --    4.23851   4.27084   4.27486   4.29532   4.32569
 Alpha virt. eigenvalues --    4.38210   4.41019   4.41346   4.42438   4.45487
 Alpha virt. eigenvalues --    4.46151   4.46684   4.46884   4.48889   4.49222
 Alpha virt. eigenvalues --    4.51015   4.51092   4.54613   4.56922   4.59382
 Alpha virt. eigenvalues --    4.62263   4.65735   4.69057   4.74282   4.77976
 Alpha virt. eigenvalues --    4.87580   4.89493   4.90253   4.91665
          Condensed to atoms (all electrons):
 Mulliken charges:
               1
     1  C   -0.154422
     2  O   -0.529399
     3  C    0.350246
     4  C   -0.183448
     5  C   -0.133364
     6  C    0.198261
     7  N   -0.671886
     8  C    0.278058
     9  C   -0.156339
    10  C   -0.143192
    11  C    0.099520
    12  C   -0.173830
    13  C   -0.155942
    14  H    0.146681
    15  H    0.142408
    16  C   -0.263262
    17  S    0.323815
    18  C   -0.222585
    19  C   -0.084909
    20  C   -0.108172
    21  H    0.137774
    22  H    0.137425
    23  C   -0.210668
    24  S    0.340328
    25  C   -0.225574
    26  C   -0.085005
    27  C   -0.093919
    28  H    0.142666
    29  H    0.142838
    30  C   -0.199837
    31  C   -0.098183
    32  C   -0.084390
    33  C   -0.288514
    34  S    0.340068
    35  C    0.201785
    36  C   -0.221966
    37  C   -0.162189
    38  C    0.096100
    39  C    0.180064
    40  C    0.208480
    41  N   -0.598282
    42  S    0.618325
    43  N   -0.585038
    44  C   -0.075619
    45  C   -0.061542
    46  C    0.318024
    47  N   -0.503103
    48  C    0.625899
    49  O   -0.521215
    50  H    0.344627
    51  O   -0.462524
    52  H    0.201200
    53  H    0.176194
    54  H    0.161482
    55  H    0.177498
    56  H    0.143289
    57  H    0.128645
    58  H    0.144769
    59  C    0.198811
    60  C   -0.133377
    61  C   -0.183522
    62  C    0.349796
    63  C   -0.165497
    64  C   -0.125686
    65  H    0.144616
    66  H    0.141997
    67  O   -0.530168
    68  C   -0.154320
    69  H    0.138224
    70  H    0.137776
    71  H    0.156488
    72  H    0.130020
    73  H    0.143017
    74  C   -0.125494
    75  C   -0.165029
    76  H    0.143740
    77  H    0.145392
    78  H    0.142164
    79  H    0.129918
    80  H    0.157238
    81  H    0.138635
    82  H    0.137114
 Sum of Mulliken charges =  -0.00000
 Mulliken charges with hydrogens summed into heavy atoms:
               1
     1  C    0.278565
     2  O   -0.529399
     3  C    0.350246
     4  C   -0.053530
     5  C    0.008800
     6  C    0.198261
     7  N   -0.671886
     8  C    0.278058
     9  C   -0.011570
    10  C   -0.014548
    11  C    0.099520
    12  C   -0.031421
    13  C   -0.009261
    16  C   -0.263262
    17  S    0.323815
    18  C   -0.222585
    19  C    0.052517
    20  C    0.029602
    23  C   -0.210668
    24  S    0.340328
    25  C   -0.225574
    26  C    0.057832
    27  C    0.048748
    30  C   -0.199837
    31  C    0.045105
    32  C    0.093108
    33  C   -0.288514
    34  S    0.340068
    35  C    0.201785
    36  C   -0.060484
    37  C    0.014005
    38  C    0.096100
    39  C    0.180064
    40  C    0.208480
    41  N   -0.598282
    42  S    0.618325
    43  N   -0.585038
    44  C    0.125581
    45  C   -0.061542
    46  C    0.318024
    47  N   -0.503103
    48  C    0.625899
    49  O   -0.176588
    51  O   -0.462524
    59  C    0.198811
    60  C    0.009639
    61  C   -0.053503
    62  C    0.349796
    63  C   -0.023500
    64  C    0.018930
    67  O   -0.530168
    68  C    0.278168
    74  C    0.019898
    75  C   -0.021289
 Electronic spatial extent (au):  <R**2>=         109317.8883
 Charge=             -0.0000 electrons
 Dipole moment (field-independent basis, Debye):
    X=             -6.9529    Y=             -5.7167    Z=             -0.2208  Tot=              9.0040
 Quadrupole moment (field-independent basis, Debye-Ang):
   XX=           -236.7822   YY=           -328.3735   ZZ=           -333.0326
   XY=            -67.6268   XZ=             -7.1753   YZ=             -7.1442
 Traceless Quadrupole moment (field-independent basis, Debye-Ang):
   XX=             62.6139   YY=            -28.9774   ZZ=            -33.6365
   XY=            -67.6268   XZ=             -7.1753   YZ=             -7.1442
 Octapole moment (field-independent basis, Debye-Ang**2):
  XXX=           -635.9983  YYY=           -246.4207  ZZZ=              6.7257  XYY=           -422.2857
  XXY=            -89.7936  XXZ=            151.9860  XZZ=            -60.7787  YZZ=             53.0732
  YYZ=            -75.5347  XYZ=             75.1014
 Hexadecapole moment (field-independent basis, Debye-Ang**3):
 XXXX=        -100412.6447 YYYY=         -18948.6569 ZZZZ=           -914.8600 XXXY=          -3058.1572
 XXXZ=          -2251.7300 YYYX=          -3803.6376 YYYZ=           -386.8750 ZZZX=              8.5989
 ZZZY=            -24.8093 XXYY=         -24594.6750 XXZZ=         -20786.2692 YYZZ=          -3349.0705
 XXYZ=           -704.3459 YYXZ=            396.1683 ZZXY=             21.4196
 N-N= 6.545177224252D+03 E-N=-2.183565088409D+04  KE= 3.703824604497D+03
 1\1\GINC-CN113\SP\RPBE1PBE TD-FC\6-31G(d,p)\C42H28N4O4S4\R2532\08-Jul-
 2021\0\\#N TD(NStates=10) PBE1PBE/6-31G(d,p)\\Name\\0,1\C,0,-8.182487,
 7.128568,-1.105953\O,0,-7.424227,6.34312,-0.197444\C,0,-7.594299,4.990
 534,-0.210206\C,0,-8.469618,4.30292,-1.054202\C,0,-8.556066,2.912758,-
 0.98279\C,0,-7.794556,2.189376,-0.065242\N,0,-7.914267,0.769334,0.0204
 59\C,0,-6.774216,-0.050771,0.00591\C,0,-6.768593,-1.297194,0.659475\C,
 0,-5.644102,-2.104499,0.641031\C,0,-4.467692,-1.716233,-0.024144\C,0,-
 4.478614,-0.467096,-0.667243\C,0,-5.599876,0.346473,-0.658344\H,0,-5.5
 76908,1.293575,-1.181667\H,0,-3.602711,-0.138034,-1.21567\C,0,-3.29800
 9,-2.590422,-0.040351\S,0,-1.679247,-1.948306,-0.237981\C,0,-0.956467,
 -3.542922,-0.138653\C,0,-1.93757,-4.494386,0.044753\C,0,-3.244337,-3.9
 61437,0.093471\H,0,-4.130751,-4.57135,0.204916\H,0,-1.716499,-5.548,0.
 153267\C,0,0.46609,-3.755461,-0.253515\S,0,1.625967,-2.48934,0.09096\C
 ,0,2.982405,-3.542881,-0.26359\C,0,2.52668,-4.8025,-0.6028\C,0,1.12365
 8,-4.920823,-0.59969\H,0,0.598595,-5.824193,-0.878894\H,0,3.192024,-5.
 607489,-0.884805\C,0,4.348203,-3.095277,-0.180959\C,0,5.489847,-3.8757
 5,-0.107659\C,0,6.681322,-3.134897,-0.049206\C,0,6.495056,-1.761727,-0
 .065502\S,0,4.773393,-1.400692,-0.18014\C,0,7.47084,-0.700054,-0.00417
 2\C,0,7.110588,0.645469,0.018098\C,0,8.027128,1.709041,0.075048\C,0,9.
 404895,1.522915,0.11638\C,0,9.839338,0.149149,0.096587\C,0,8.893835,-0
 .951326,0.03749\N,0,9.486622,-2.145534,0.026726\S,0,11.103043,-1.88727
 3,0.087207\N,0,11.109838,-0.25003,0.128721\C,0,10.416144,2.547404,0.17
 7016\C,0,10.318038,3.907627,0.206239\C,0,9.086736,4.624554,0.179205\N,
 0,8.074009,5.181561,0.156275\C,0,11.527344,4.770239,0.270304\O,0,12.68
 2594,4.060852,0.295141\H,0,13.395218,4.714294,0.336154\O,0,11.502773,5
 .975544,0.297992\H,0,11.429221,2.163911,0.203953\H,0,7.621846,2.710797
 ,0.088106\H,0,6.059098,0.905844,-0.006957\H,0,7.6642,-3.57476,0.016447
 \H,0,5.457693,-4.956156,-0.073146\H,0,-5.665615,-3.041239,1.185874\H,0
 ,-7.649607,-1.620623,1.198724\C,0,-9.220243,0.201134,0.115168\C,0,-10.
 139608,0.682707,1.047013\C,0,-11.428031,0.154911,1.127792\C,0,-11.8082
 86,-0.887709,0.279495\C,0,-10.887142,-1.380914,-0.653708\C,0,-9.616649
 ,-0.837159,-0.741459\H,0,-8.917672,-1.217857,-1.476612\H,0,-11.199291,
 -2.182431,-1.312207\O,0,-13.035193,-1.482953,0.276218\C,0,-14.013089,-
 1.020418,1.196578\H,0,-13.687246,-1.158105,2.2338\H,0,-14.254822,0.035
 405,1.029631\H,0,-14.900545,-1.624742,1.016261\H,0,-12.114575,0.557814
 ,1.860159\H,0,-9.849997,1.486332,1.713561\C,0,-6.927688,2.890499,0.786
 592\C,0,-6.820574,4.268759,0.708116\H,0,-6.152769,4.81606,1.362263\H,0
 ,-6.334436,2.344841,1.510642\H,0,-9.232054,2.385586,-1.645441\H,0,-9.0
 78993,4.830121,-1.775834\H,0,-7.894368,8.161501,-0.918177\H,0,-7.95365
 8,6.873436,-2.14684\H,0,-9.258874,7.01634,-0.932988\\Version=ES64L-G16
 RevB.01\State=1-A\HF=-3726.9429453\RMSD=7.426e-09\PG=C01 [X(C42H28N4O4
 S4)]\\@


     ON THE SURVIVAL OF THE FITTEST -
 "STRONG REPRESENTATIVES FROM EACH PAST ERA THRIVE TODAY,
 SUCH AS PROGRAMMING IN THE THIRTY YEAR OLD LANGUAGE KNOWN
 AS FORTRAN, AND EVEN IN THE ANCIENT SCRIPT KNOWN AS DIRECT
 MACHINE CODE. SOME PEOPLE MIGHT LOOK ON SUCH RELICS AS LIVING
 FOSSILS; OTHERS WOULD POINT OUT THAT EVEN A VERY OLD SPECIES
 MIGHT STILL BE FILLING A PARTICULAR ECOLOGICAL NICHE."
     -- ALAN KAY, SCI.AM. SEPTEMBER 1984
 Job cpu time:       0 days  1 hours 57 minutes 12.0 seconds.
 Elapsed time:       0 days  1 hours 57 minutes 44.0 seconds.
 File lengths (MBytes):  RWF=   6455 Int=      0 D2E=      0 Chk=    366 Scr=      1
 Normal termination of Gaussian 16 at Thu Jul  8 11:59:44 2021.
