 Entering Gaussian System, Link 0=/usr/local/apps//g09/g09
 Input=mexc.com
 Output=mexc.out
 Initial command:
 /usr/local/apps//g09/l1.exe "/tmp/bnp.502000.sequoia/Gau-10681.inp" -scrdir="/tmp/bnp.502000.sequoia/"
 Entering Link 1 = /usr/local/apps//g09/l1.exe PID=     10682.
  
 Copyright (c) 1988,1990,1992,1993,1995,1998,2003,2009,2013,
            Gaussian, Inc.  All Rights Reserved.
  
 This is part of the Gaussian(R) 09 program.  It is based on
 the Gaussian(R) 03 system (copyright 2003, Gaussian, Inc.),
 the Gaussian(R) 98 system (copyright 1998, Gaussian, Inc.),
 the Gaussian(R) 94 system (copyright 1995, Gaussian, Inc.),
 the Gaussian 92(TM) system (copyright 1992, Gaussian, Inc.),
 the Gaussian 90(TM) system (copyright 1990, Gaussian, Inc.),
 the Gaussian 88(TM) system (copyright 1988, Gaussian, Inc.),
 the Gaussian 86(TM) system (copyright 1986, Carnegie Mellon
 University), and the Gaussian 82(TM) system (copyright 1983,
 Carnegie Mellon University). Gaussian is a federally registered
 trademark of Gaussian, Inc.
  
 This software contains proprietary and confidential information,
 including trade secrets, belonging to Gaussian, Inc.
  
 This software is provided under written license and may be
 used, copied, transmitted, or stored only in accord with that
 written license.
  
 The following legend is applicable only to US Government
 contracts under FAR:
  
                    RESTRICTED RIGHTS LEGEND
  
 Use, reproduction and disclosure by the US Government is
 subject to restrictions as set forth in subparagraphs (a)
 and (c) of the Commercial Computer Software - Restricted
 Rights clause in FAR 52.227-19.
  
 Gaussian, Inc.
 340 Quinnipiac St., Bldg. 40, Wallingford CT 06492
  
  
 ---------------------------------------------------------------
 Warning -- This program may not be used in any manner that
 competes with the business of Gaussian, Inc. or will provide
 assistance to any competitor of Gaussian, Inc.  The licensee
 of this program is prohibited from giving any competitor of
 Gaussian, Inc. access to this program.  By using this program,
 the user acknowledges that Gaussian, Inc. is engaged in the
 business of creating and licensing software in the field of
 computational chemistry and represents and warrants to the
 licensee that it is not a competitor of Gaussian, Inc. and that
 it will not use this program in any manner prohibited above.
 ---------------------------------------------------------------
  

 Cite this work as:
 Gaussian 09, Revision D.01,
 M. J. Frisch, G. W. Trucks, H. B. Schlegel, G. E. Scuseria, 
 M. A. Robb, J. R. Cheeseman, G. Scalmani, V. Barone, B. Mennucci, 
 G. A. Petersson, H. Nakatsuji, M. Caricato, X. Li, H. P. Hratchian, 
 A. F. Izmaylov, J. Bloino, G. Zheng, J. L. Sonnenberg, M. Hada, 
 M. Ehara, K. Toyota, R. Fukuda, J. Hasegawa, M. Ishida, T. Nakajima, 
 Y. Honda, O. Kitao, H. Nakai, T. Vreven, J. A. Montgomery, Jr., 
 J. E. Peralta, F. Ogliaro, M. Bearpark, J. J. Heyd, E. Brothers, 
 K. N. Kudin, V. N. Staroverov, T. Keith, R. Kobayashi, J. Normand, 
 K. Raghavachari, A. Rendell, J. C. Burant, S. S. Iyengar, J. Tomasi, 
 M. Cossi, N. Rega, J. M. Millam, M. Klene, J. E. Knox, J. B. Cross, 
 V. Bakken, C. Adamo, J. Jaramillo, R. Gomperts, R. E. Stratmann, 
 O. Yazyev, A. J. Austin, R. Cammi, C. Pomelli, J. W. Ochterski, 
 R. L. Martin, K. Morokuma, V. G. Zakrzewski, G. A. Voth, 
 P. Salvador, J. J. Dannenberg, S. Dapprich, A. D. Daniels, 
 O. Farkas, J. B. Foresman, J. V. Ortiz, J. Cioslowski, 
 and D. J. Fox, Gaussian, Inc., Wallingford CT, 2013.
 
 ******************************************
 Gaussian 09:  ES64L-G09RevD.01 24-Apr-2013
                11-Sep-2021 
 ******************************************
 %mem=8gb
 -------------------------------------
 #N PBE1PBE/6-311G(d,p) TD(NStates=10)
 -------------------------------------
 1/38=1/1;
 2/12=2,17=6,18=5,40=1/2;
 3/5=4,6=6,7=101,11=9,16=1,25=1,30=1,74=-13/1,2,8,3;
 4//1;
 5/5=2,38=5/2;
 8/6=1,10=2,108=10/1;
 9/41=10,42=1,70=2/14;
 6/7=2,8=2,9=2,10=2/1;
 99/5=1,9=1/99;
 ----
 Name
 ----
 Symbolic Z-matrix:
 Charge =  0 Multiplicity = 1
 N1                   -4.33447   0.09177  -0.0121 
 C2                   -4.94197  -1.17053   0.00485 
 C3                   -6.32875  -1.21331  -0.21848 
 C4                   -7.00263  -2.4245   -0.21284 
 C5                   -6.31219  -3.61627   0.0132 
 C6                   -4.94063  -3.57427   0.24028 
 C7                   -4.24942  -2.3649    0.24074 
 C8                   -0.47443   0.86058  -0.01803 
 C9                   -1.21852   2.05223   0.00372 
 C10                  -2.65149   1.84521   0.02401 
 N11                  -3.38276   2.96005   0.04289 
 S12                  -2.29831   4.19019   0.04147 
 N13                  -0.886     3.35358   0.01408 
 C14                  -3.03635   0.48572   0.01317 
 S15                  -1.60935  -0.49523  -0.02779 
 O16                   8.05452  -1.57708  -0.01002 
 C17                   6.73819  -1.89147  -0.01713 
 C18                   5.77746  -0.74397  -0.01034 
 C19                   6.30121   0.57136   0.00347 
 N20                   6.7885    1.62405   0.0148 
 C21                   4.4364   -1.03488  -0.01782 
 C22                   3.31771  -0.17076  -0.01434 
 C23                   3.2085    1.21881  -0.00134 
 C24                   1.89824   1.69391  -0.00186 
 C25                   0.9328    0.68008  -0.01457 
 S26                   1.69896  -0.88714  -0.02769 
 O27                   6.38701  -3.04296  -0.02836 
 H28                  -4.97309   0.87595  -0.06911 
 H29                  -6.87043  -0.29063  -0.40082 
 H30                  -8.07192  -2.43854  -0.38834 
 H31                  -6.83889  -4.56257   0.01387 
 H32                  -4.39219  -4.49041   0.42533 
 H33                  -3.18918  -2.36935   0.44643 
 H34                   8.18503  -0.61862  -0.00128 
 H35                   4.23738  -2.10365  -0.02813 
 H36                   4.07209   1.86894   0.00847 
 H37                   1.6266    2.73964   0.0067 
 
                          Input orientation:                          
 ---------------------------------------------------------------------
 Center     Atomic      Atomic             Coordinates (Angstroms)
 Number     Number       Type             X           Y           Z
 ---------------------------------------------------------------------
      1          7           0       -4.334466    0.091766   -0.012098
      2          6           0       -4.941970   -1.170533    0.004853
      3          6           0       -6.328753   -1.213314   -0.218484
      4          6           0       -7.002632   -2.424504   -0.212842
      5          6           0       -6.312191   -3.616267    0.013202
      6          6           0       -4.940634   -3.574271    0.240283
      7          6           0       -4.249417   -2.364901    0.240740
      8          6           0       -0.474431    0.860577   -0.018027
      9          6           0       -1.218523    2.052229    0.003721
     10          6           0       -2.651490    1.845206    0.024011
     11          7           0       -3.382760    2.960053    0.042894
     12         16           0       -2.298314    4.190193    0.041470
     13          7           0       -0.885998    3.353582    0.014083
     14          6           0       -3.036354    0.485715    0.013173
     15         16           0       -1.609346   -0.495226   -0.027785
     16          8           0        8.054517   -1.577076   -0.010016
     17          6           0        6.738194   -1.891467   -0.017132
     18          6           0        5.777462   -0.743968   -0.010336
     19          6           0        6.301212    0.571355    0.003465
     20          7           0        6.788499    1.624046    0.014797
     21          6           0        4.436397   -1.034883   -0.017817
     22          6           0        3.317712   -0.170759   -0.014335
     23          6           0        3.208502    1.218811   -0.001343
     24          6           0        1.898244    1.693908   -0.001857
     25          6           0        0.932798    0.680079   -0.014568
     26         16           0        1.698955   -0.887135   -0.027690
     27          8           0        6.387007   -3.042960   -0.028360
     28          1           0       -4.973091    0.875945   -0.069114
     29          1           0       -6.870426   -0.290628   -0.400821
     30          1           0       -8.071919   -2.438539   -0.388340
     31          1           0       -6.838887   -4.562569    0.013870
     32          1           0       -4.392185   -4.490411    0.425331
     33          1           0       -3.189181   -2.369351    0.446427
     34          1           0        8.185026   -0.618623   -0.001280
     35          1           0        4.237378   -2.103645   -0.028132
     36          1           0        4.072089    1.868944    0.008468
     37          1           0        1.626597    2.739637    0.006703
 ---------------------------------------------------------------------
                    Distance matrix (angstroms):
                    1          2          3          4          5
     1  N    0.000000
     2  C    1.400981   0.000000
     3  C    2.392281   1.405303   0.000000
     4  C    3.673013   2.422016   1.386047   0.000000
     5  C    4.202564   2.803425   2.414153   1.395745   0.000000
     6  C    3.724374   2.415240   2.776951   2.403980   1.390862
     7  C    2.471108   1.400638   2.420884   2.790964   2.423371
     8  C    3.935858   4.907630   6.214040   7.310754   7.356803
     9  C    3.681408   4.924455   6.068575   7.317373   7.620852
    10  C    2.430692   3.786997   4.789114   6.100734   6.574841
    11  N    3.022555   4.415238   5.115094   6.493253   7.199336
    12  S    4.576668   5.977260   6.746103   8.120930   8.777974
    13  N    4.746795   6.076069   7.108742   8.417303   8.833027
    14  C    1.356808   2.524797   3.712177   4.924614   5.249511
    15  S    2.787667   3.400513   4.777533   5.730959   5.644407
    16  O   12.500877  13.002852  14.389379  15.082341  14.510725
    17  C   11.248868  11.702413  13.086082  13.752554  13.163905
    18  C   10.146405  10.727927  12.117098  12.891703  12.426197
    19  C   10.646497  11.377316  12.757363  13.638703  13.290380
    20  N   11.228043  12.058759  13.422643  14.374904  14.109889
    21  C    8.842930   9.379375  10.768498  11.524776  11.054259
    22  C    7.656680   8.319992   9.704787  10.565428  10.227772
    23  C    7.626710   8.493480   9.844878  10.843696  10.678098
    24  C    6.435343   7.415767   8.728250   9.809762   9.778007
    25  C    5.300018   6.159386   7.507106   8.523426   8.423136
    26  S    6.112337   6.647049   8.036597   8.838292   8.463350
    27  O   11.170352  11.482718  12.848125  13.405184  12.712200
    28  H    1.012931   2.048051   2.495022   3.877197   4.688276
    29  H    2.593921   2.158181   1.085360   2.146216   3.397487
    30  H    4.529079   3.399856   2.137441   1.083684   2.155208
    31  H    5.285417   3.886423   3.395841   2.156278   1.083004
    32  H    4.603371   3.391262   3.860590   3.389642   2.149512
    33  H    2.753002   2.168968   3.411076   3.870412   3.390527
    34  H   12.539635  13.138595  14.527581  15.296108  14.803897
    35  H    8.848536   9.226712  10.605284  11.246106  10.657539
    36  H    8.592378   9.512712  10.850315  11.879904  11.743970
    37  H    6.522718   7.644312   8.886176  10.058834  10.169656
                    6          7          8          9         10
     6  C    0.000000
     7  C    1.392967   0.000000
     8  C    6.299331   4.972041   0.000000
     9  C    6.750376   5.362232   1.405055   0.000000
    10  C    5.887078   4.508364   2.389738   1.447986   0.000000
    11  N    6.720366   5.398645   3.587463   2.347254   1.333415
    12  S    8.204163   6.842205   3.796898   2.395467   2.371498
    13  N    8.030342   6.638148   2.526953   1.343205   2.322124
    14  C    4.490139   3.106335   2.589391   2.399701   1.412959
    15  S    4.544212   3.246192   1.768143   2.577453   2.562493
    16  O   13.150110  12.331680   8.870466   9.957977  11.239740
    17  C   11.802250  11.000829   7.719826   8.880457  10.105968
    18  C   11.088328  10.160156   6.454517   7.534104   8.817723
    19  C   11.984215  10.954162   6.781847   7.664164   9.042897
    20  N   12.831442  11.738754   7.303021   8.018470   9.442584
    21  C    9.718221   8.790857   5.263934   6.442736   7.650804
    22  C    8.935827   7.882941   3.929888   5.051676   6.300552
    23  C    9.457295   8.277811   3.700352   4.504793   5.893430
    24  C    8.636121   7.370653   2.514814   3.137302   4.552322
    25  C    7.256834   6.016015   1.418762   2.551727   3.769102
    26  S    7.167751   6.135061   2.788942   4.141561   5.137580
    27  O   11.343276  10.661411   7.894114   9.154565  10.275765
    28  H    4.461076   3.335086   4.498976   3.935191   2.517533
    29  H    3.862308   3.403512   6.510035   6.131610   4.747809
    30  H    3.389690   3.874621   8.291147   8.203033   6.921095
    31  H    2.152060   3.403905   8.361688   8.680101   7.654670
    32  H    1.083675   2.138282   6.646686   7.283957   6.582638
    33  H    2.135864   1.080013   4.244764   4.861055   4.269665
    34  H   13.456491  12.558799   8.784902   9.775490  11.113108
    35  H    9.298962   8.495071   5.566674   6.858510   7.940570
    36  H   10.531453   9.339532   4.657075   5.293788   6.723639
    37  H    9.113096   7.787080   2.818829   2.926986   4.370622
                   11         12         13         14         15
    11  N    0.000000
    12  S    1.639899   0.000000
    13  N    2.527749   1.641738   0.000000
    14  C    2.498645   3.777388   3.584507   0.000000
    15  S    3.884449   4.736309   3.916415   1.732130   0.000000
    16  O   12.304456  11.850956  10.210033  11.281093   9.724246
    17  C   11.223839  10.892589   9.254178  10.059508   8.463511
    18  C    9.880904   9.463973   7.822545   8.899215   7.391015
    19  C    9.974304   9.330020   7.706938   9.337964   7.982199
    20  N   10.258665   9.442245   7.866969   9.890578   8.661231
    21  C    8.780798   8.524158   6.898372   7.625955   6.069789
    22  C    7.396052   7.110609   5.485705   6.387947   4.937749
    23  C    6.817523   6.257473   4.617620   6.287755   5.113735
    24  C    5.430850   4.883074   3.241416   5.080375   4.134751
    25  C    4.881150   4.771177   3.233645   3.974005   2.800716
    26  S    6.374140   6.462368   4.966629   4.930470   3.331433
    27  O   11.466891  11.303016   9.685771  10.062455   8.392414
    28  H    2.623967   4.260387   4.780161   1.977372   3.632712
    29  H    4.788280   6.416976   7.018959   3.933727   5.278255
    30  H    7.163726   8.801099   9.238402   5.836899   6.758056
    31  H    8.278617   9.860447   9.904662   6.320161   6.625188
    32  H    7.528254   8.937815   8.601785   5.173972   4.889889
    33  H    5.348164   6.632138   6.184136   2.891793   2.496618
    34  H   12.108780  11.533731   9.902632  11.275599   9.795185
    35  H    9.149458   9.073726   7.485459   7.720989   6.063926
    36  H    7.534353   6.780215   5.175597   7.241775   6.153805
    37  H    5.014335   4.184525   2.586526   5.179123   4.575681
                   16         17         18         19         20
    16  O    0.000000
    17  C    1.353366   0.000000
    18  C    2.424675   1.496598   0.000000
    19  C    2.773088   2.501374   1.415832   0.000000
    20  N    3.442470   3.516018   2.574940   1.160058   0.000000
    21  C    3.658528   2.456014   1.372277   2.461298   3.550120
    22  C    4.941161   3.828909   2.525659   3.074463   3.907497
    23  C    5.594723   4.704551   3.232977   3.159759   3.602895
    24  C    6.971305   6.023310   4.581664   4.543818   4.890782
    25  C    7.470853   6.349447   5.049623   5.369545   5.931372
    26  S    6.392926   5.138358   4.081056   4.827933   5.675499
    27  O    2.220302   1.203908   2.378494   3.615473   4.684443
    28  H   13.256673  12.033930  10.872073  11.278650  11.785656
    29  H   14.985380  13.707824  12.662032  13.206003  13.798730
    30  H   16.153860  14.824862  13.957787  14.690128  15.411007
    31  H   15.189708  13.837372  13.181599  14.107427  14.965957
    32  H   12.790521  11.438340  10.846537  11.838420  12.750012
    33  H   11.280815   9.949675   9.124209   9.945427  10.755818
    34  H    0.967337   1.927098   2.410842   2.228189   2.641990
    35  H    3.853330   2.509825   2.054482   3.378762   4.517271
    36  H    5.266415   4.609714   3.120250   2.579293   2.727434
    37  H    7.742896   6.897544   5.418992   5.153007   5.281083
                   21         22         23         24         25
    21  C    0.000000
    22  C    1.413569   0.000000
    23  C    2.566541   1.393915   0.000000
    24  C    3.726765   2.343508   1.393734   0.000000
    25  C    3.900809   2.532141   2.338640   1.400035   0.000000
    26  S    2.741444   1.770239   2.591223   2.588854   1.744514
    27  O    2.799529   4.203606   5.316608   6.525919   6.603757
    28  H    9.601685   8.356794   8.189055   6.920176   5.909388
    29  H   11.337762  10.196171  10.199156   8.999285   7.872850
    30  H   12.592280  11.619225  11.864817  10.799567   9.536793
    31  H   11.814297  11.065500  11.592006  10.746218   9.374714
    32  H    9.491097   8.848458   9.515656   8.831636   7.435249
    33  H    7.755370   6.883732   7.348861   6.526326   5.148034
    34  H    3.771706   4.887893   5.304899   6.698614   7.367606
    35  H    1.087183   2.140566   3.478220   4.460229   4.320828
    36  H    2.926708   2.174855   1.080996   2.180905   3.356945
    37  H    4.705590   3.366113   2.194402   1.080470   2.173382
                   26         27         28         29         30
    26  S    0.000000
    27  O    5.159982   0.000000
    28  H    6.901186  12.017125   0.000000
    29  H    8.598217  13.545242   2.251844   0.000000
    30  H    9.899844  14.476030   4.548675   2.461151   0.000000
    31  H    9.295444  13.312974   5.750262   4.292137   2.488703
    32  H    7.091602  10.885400   5.420305   4.945946   4.291000
    33  H    5.129876   9.611584   3.738992   4.311668   4.954064
    34  H    6.491680   3.018446  13.242899  15.064324  16.363073
    35  H    2.814869   2.345894   9.680515  11.260961  12.319119
    36  H    3.637175   5.430194   9.099854  11.161089  12.891423
    37  H    3.627657   7.490071   6.858205   9.030392  11.001399
                   31         32         33         34         35
    31  H    0.000000
    32  H    2.482107   0.000000
    33  H    4.279914   2.438557   0.000000
    34  H   15.532962  13.166586  11.516860   0.000000
    35  H   11.346000   8.965023   7.446448   4.217812   0.000000
    36  H   12.665456  10.595240   8.419085   4.806697   3.976195
    37  H   11.179744   9.416718   7.034688   7.368240   5.502251
                   36         37
    36  H    0.000000
    37  H    2.595870   0.000000
 Stoichiometry    C18H10N4O2S3
 Framework group  C1[X(C18H10N4O2S3)]
 Deg. of freedom   105
 Full point group                 C1      NOp   1
 Largest Abelian subgroup         C1      NOp   1
 Largest concise Abelian subgroup C1      NOp   1
                         Standard orientation:                         
 ---------------------------------------------------------------------
 Center     Atomic      Atomic             Coordinates (Angstroms)
 Number     Number       Type             X           Y           Z
 ---------------------------------------------------------------------
      1          7           0       -4.334466    0.091766   -0.012098
      2          6           0       -4.941970   -1.170533    0.004853
      3          6           0       -6.328753   -1.213314   -0.218484
      4          6           0       -7.002632   -2.424504   -0.212842
      5          6           0       -6.312191   -3.616267    0.013202
      6          6           0       -4.940634   -3.574271    0.240283
      7          6           0       -4.249417   -2.364901    0.240740
      8          6           0       -0.474431    0.860577   -0.018027
      9          6           0       -1.218523    2.052229    0.003721
     10          6           0       -2.651490    1.845206    0.024011
     11          7           0       -3.382760    2.960053    0.042894
     12         16           0       -2.298314    4.190193    0.041470
     13          7           0       -0.885998    3.353582    0.014083
     14          6           0       -3.036354    0.485715    0.013173
     15         16           0       -1.609346   -0.495226   -0.027785
     16          8           0        8.054517   -1.577076   -0.010016
     17          6           0        6.738194   -1.891467   -0.017132
     18          6           0        5.777462   -0.743968   -0.010336
     19          6           0        6.301212    0.571355    0.003465
     20          7           0        6.788499    1.624046    0.014797
     21          6           0        4.436397   -1.034883   -0.017817
     22          6           0        3.317712   -0.170759   -0.014335
     23          6           0        3.208502    1.218811   -0.001343
     24          6           0        1.898244    1.693908   -0.001857
     25          6           0        0.932798    0.680079   -0.014568
     26         16           0        1.698955   -0.887135   -0.027690
     27          8           0        6.387007   -3.042960   -0.028360
     28          1           0       -4.973091    0.875945   -0.069114
     29          1           0       -6.870426   -0.290628   -0.400821
     30          1           0       -8.071919   -2.438539   -0.388340
     31          1           0       -6.838887   -4.562569    0.013870
     32          1           0       -4.392185   -4.490411    0.425331
     33          1           0       -3.189181   -2.369351    0.446427
     34          1           0        8.185026   -0.618623   -0.001280
     35          1           0        4.237378   -2.103645   -0.028132
     36          1           0        4.072089    1.868944    0.008468
     37          1           0        1.626597    2.739637    0.006703
 ---------------------------------------------------------------------
 Rotational constants (GHZ):      0.2686722      0.0634091      0.0513367
 Standard basis: 6-311G(d,p) (5D, 7F)
 There are   597 symmetry adapted cartesian basis functions of A   symmetry.
 There are   570 symmetry adapted basis functions of A   symmetry.
   570 basis functions,   986 primitive gaussians,   597 cartesian basis functions
   105 alpha electrons      105 beta electrons
       nuclear repulsion energy      2574.7241130391 Hartrees.
 NAtoms=   37 NActive=   37 NUniq=   37 SFac= 1.00D+00 NAtFMM=   60 NAOKFM=F Big=F
 Integral buffers will be    131072 words long.
 Regular integral format.
 Two-electron integral symmetry is turned on.
 One-electron integrals computed using PRISM.
 NBasis=   570 RedAO= T EigKep=  1.81D-04  NBF=   570
 NBsUse=   570 1.00D-06 EigRej= -1.00D+00 NBFU=   570
 ExpMin= 7.71D-02 ExpMax= 9.34D+04 ExpMxC= 3.17D+03 IAcc=2 IRadAn=         4 AccDes= 0.00D+00
 Harris functional with IExCor= 1009 and IRadAn=       4 diagonalized for initial guess.
 HarFok:  IExCor= 1009 AccDes= 0.00D+00 IRadAn=         4 IDoV= 1 UseB2=F ITyADJ=14
 ICtDFT=  3500011 ScaDFX=  1.000000  1.000000  1.000000  1.000000
 FoFCou: FMM=F IPFlag=           0 FMFlag=      100000 FMFlg1=           0
         NFxFlg=           0 DoJE=T BraDBF=F KetDBF=T FulRan=T
         wScrn=  0.000000 ICntrl=     500 IOpCl=  0 I1Cent=   200000004 NGrid=           0
         NMat0=    1 NMatS0=      1 NMatT0=    0 NMatD0=    1 NMtDS0=    0 NMtDT0=    0
 Petite list used in FoFCou.
 Requested convergence on RMS density matrix=1.00D-08 within 128 cycles.
 Requested convergence on MAX density matrix=1.00D-06.
 Requested convergence on             energy=1.00D-06.
 No special actions if energy rises.
 Integral accuracy reduced to 1.0D-05 until final iterations.
 Initial convergence to 1.0D-05 achieved.  Increase integral accuracy.
 SCF Done:  E(RPBE1PBE) =  -2254.55261939     A.U. after   19 cycles
            NFock= 19  Conv=0.39D-08     -V/T= 2.0024
 DoSCS=F DFT=T ScalE2(SS,OS)=  1.000000  1.000000
 ExpMin= 7.71D-02 ExpMax= 9.34D+04 ExpMxC= 3.17D+03 IAcc=3 IRadAn=         5 AccDes= 0.00D+00
 HarFok:  IExCor=  205 AccDes= 0.00D+00 IRadAn=         5 IDoV=-2 UseB2=F ITyADJ=14
 ICtDFT= 12500011 ScaDFX=  1.000000  1.000000  1.000000  1.000000
 Range of M.O.s used for correlation:    40   570
 NBasis=   570 NAE=   105 NBE=   105 NFC=    39 NFV=     0
 NROrb=    531 NOA=    66 NOB=    66 NVA=   465 NVB=   465

 **** Warning!!: The largest alpha MO coefficient is  0.18355858D+02


 **** Warning!!: The smallest alpha delta epsilon is  0.75431382D-01

 Would need an additional         38766100000 words for in-memory AO integral storage.
 Orbital symmetries:
       Occupied  (A) (A) (A) (A) (A) (A) (A) (A) (A) (A) (A) (A)
                 (A) (A) (A) (A) (A) (A) (A) (A) (A) (A) (A) (A)
                 (A) (A) (A) (A) (A) (A) (A) (A) (A) (A) (A) (A)
                 (A) (A) (A) (A) (A) (A) (A) (A) (A) (A) (A) (A)
                 (A) (A) (A) (A) (A) (A) (A) (A) (A) (A) (A) (A)
                 (A) (A) (A) (A) (A) (A) (A) (A) (A) (A) (A) (A)
                 (A) (A) (A) (A) (A) (A) (A) (A) (A) (A) (A) (A)
                 (A) (A) (A) (A) (A) (A) (A) (A) (A) (A) (A) (A)
                 (A) (A) (A) (A) (A) (A) (A) (A) (A)
       Virtual   (A) (A) (A) (A) (A) (A) (A) (A) (A) (A) (A) (A)
                 (A) (A) (A) (A) (A) (A) (A) (A) (A) (A) (A) (A)
                 (A) (A) (A) (A) (A) (A) (A) (A) (A) (A) (A) (A)
                 (A) (A) (A) (A) (A) (A) (A) (A) (A) (A) (A) (A)
                 (A) (A) (A) (A) (A) (A) (A) (A) (A) (A) (A) (A)
                 (A) (A) (A) (A) (A) (A) (A) (A) (A) (A) (A) (A)
                 (A) (A) (A) (A) (A) (A) (A) (A) (A) (A) (A) (A)
                 (A) (A) (A) (A) (A) (A) (A) (A) (A) (A) (A) (A)
                 (A) (A) (A) (A) (A) (A) (A) (A) (A) (A) (A) (A)
                 (A) (A) (A) (A) (A) (A) (A) (A) (A) (A) (A) (A)
                 (A) (A) (A) (A) (A) (A) (A) (A) (A) (A) (A) (A)
                 (A) (A) (A) (A) (A) (A) (A) (A) (A) (A) (A) (A)
                 (A) (A) (A) (A) (A) (A) (A) (A) (A) (A) (A) (A)
                 (A) (A) (A) (A) (A) (A) (A) (A) (A) (A) (A) (A)
                 (A) (A) (A) (A) (A) (A) (A) (A) (A) (A) (A) (A)
                 (A) (A) (A) (A) (A) (A) (A) (A) (A) (A) (A) (A)
                 (A) (A) (A) (A) (A) (A) (A) (A) (A) (A) (A) (A)
                 (A) (A) (A) (A) (A) (A) (A) (A) (A) (A) (A) (A)
                 (A) (A) (A) (A) (A) (A) (A) (A) (A) (A) (A) (A)
                 (A) (A) (A) (A) (A) (A) (A) (A) (A) (A) (A) (A)
                 (A) (A) (A) (A) (A) (A) (A) (A) (A) (A) (A) (A)
                 (A) (A) (A) (A) (A) (A) (A) (A) (A) (A) (A) (A)
                 (A) (A) (A) (A) (A) (A) (A) (A) (A) (A) (A) (A)
                 (A) (A) (A) (A) (A) (A) (A) (A) (A) (A) (A) (A)
                 (A) (A) (A) (A) (A) (A) (A) (A) (A) (A) (A) (A)
                 (A) (A) (A) (A) (A) (A) (A) (A) (A) (A) (A) (A)
                 (A) (A) (A) (A) (A) (A) (A) (A) (A) (A) (A) (A)
                 (A) (A) (A) (A) (A) (A) (A) (A) (A) (A) (A) (A)
                 (A) (A) (A) (A) (A) (A) (A) (A) (A) (A) (A) (A)
                 (A) (A) (A) (A) (A) (A) (A) (A) (A) (A) (A) (A)
                 (A) (A) (A) (A) (A) (A) (A) (A) (A) (A) (A) (A)
                 (A) (A) (A) (A) (A) (A) (A) (A) (A) (A) (A) (A)
                 (A) (A) (A) (A) (A) (A) (A) (A) (A) (A) (A) (A)
                 (A) (A) (A) (A) (A) (A) (A) (A) (A) (A) (A) (A)
                 (A) (A) (A) (A) (A) (A) (A) (A) (A) (A) (A) (A)
                 (A) (A) (A) (A) (A) (A) (A) (A) (A) (A) (A) (A)
                 (A) (A) (A) (A) (A) (A) (A) (A) (A) (A) (A) (A)
                 (A) (A) (A) (A) (A) (A) (A) (A) (A) (A) (A) (A)
                 (A) (A) (A) (A) (A) (A) (A) (A) (A)
    40 initial guesses have been made.
 Convergence on wavefunction:    0.001000000000000
 Iteration     1 Dimension    40 NMult     0 NNew     40
 CISAX will form    40 AO SS matrices at one time.
 New state      4 was old state      6
 New state      5 was old state      4
 New state      6 was old state      5
 New state      7 was old state      9
 New state      8 was old state      7
 New state      9 was old state      8
 New state     10 was old state     11
 Iteration     2 Dimension    60 NMult    40 NNew     20
 New state      7 was old state      8
 New state      8 was old state      7
 Iteration     3 Dimension    80 NMult    60 NNew     20
 New state      6 was old state      7
 New state      7 was old state      6
 Iteration     4 Dimension   100 NMult    80 NNew     20
 Iteration     5 Dimension   118 NMult   100 NNew     18
 Iteration     6 Dimension   122 NMult   118 NNew      4
 ***********************************************************************
 Excited states from <AA,BB:AA,BB> singles matrix:
 ***********************************************************************
 
 Ground to excited state transition densities written to RWF  633
 Ground to excited state transition electric dipole moments (Au):
       state          X           Y           Z        Dip. S.      Osc.
         1        -2.4213     -0.4625      0.0114      6.0769      0.2370
         2        -3.7312      0.3825      0.0092     14.0681      0.9197
         3         0.7989     -0.9944     -0.0011      1.6270      0.1262
         4         0.0803      0.0207      0.0029      0.0069      0.0006
         5        -0.2957     -0.1457     -0.0037      0.1087      0.0096
         6         0.6391      0.7093      0.0168      0.9119      0.0856
         7         0.0135      0.0124      0.0203      0.0007      0.0001
         8         0.2386      0.4428     -0.0224      0.2535      0.0241
         9         0.9360      0.8313     -0.0065      1.5672      0.1506
        10         0.2053     -0.2242      0.0451      0.0944      0.0094
 Ground to excited state transition velocity dipole moments (Au):
       state          X           Y           Z        Dip. S.      Osc.
         1         0.1434      0.0254     -0.0003      0.0212      0.2416
         2         0.3560     -0.0376     -0.0004      0.1282      0.8713
         3        -0.0951      0.1155      0.0000      0.0224      0.1282
         4        -0.0112     -0.0010     -0.0054      0.0002      0.0008
         5         0.0330      0.0170      0.0004      0.0014      0.0069
         6        -0.0931     -0.0984     -0.0020      0.0184      0.0869
         7        -0.0021     -0.0017     -0.0028      0.0000      0.0001
         8        -0.0256     -0.0614      0.0027      0.0044      0.0208
         9        -0.1306     -0.1203     -0.0003      0.0315      0.1458
        10        -0.0361      0.0317     -0.0054      0.0023      0.0104
 Ground to excited state transition magnetic dipole moments (Au):
       state          X           Y           Z
         1        -0.0062     -0.0048     -0.6984
         2        -0.0037     -0.0186     -1.0060
         3        -0.0064     -0.0048     -0.4159
         4        -0.0838      0.0728     -0.1052
         5         0.0002     -0.0104      0.3088
         6         0.0385     -0.0389      0.6062
         7        -0.0135     -0.0942      0.0073
         8        -0.0723      0.1165      0.8804
         9         0.0058      0.0157      0.8515
        10         0.0770     -0.1106     -0.6779
 Ground to excited state transition velocity quadrupole moments (Au):
       state          XX          YY          ZZ          XY          XZ          YZ
         1        -0.2305     -0.0420      0.0074     -0.3038     -0.0073      0.0022
         2         1.5644     -0.3684     -0.0048     -0.6051     -0.0059      0.0076
         3        -2.3700      0.3449      0.0318     -0.4741     -0.0036      0.0064
         4         0.1724     -0.0234     -0.0004      0.0310      0.0019     -0.0634
         5         0.2858     -0.0757     -0.0139     -0.0065      0.0003      0.0007
         6         1.1092     -0.0422     -0.0187      0.9911      0.0359     -0.0013
         7         0.0228     -0.0029     -0.0003      0.0184     -0.0412      0.0044
         8         0.0783      0.1103     -0.0027      0.5604     -0.0526     -0.0376
         9         1.7219      0.1734     -0.0024      0.7494      0.0112     -0.0134
        10         0.6516     -0.0501      0.0013     -0.1176      0.0738      0.0319
 <0|del|b> * <b|rxdel|0> + <0|del|b> * <b|delr+rdel|0>
 Rotatory Strengths (R) in cgs (10**-40 erg-esu-cm/Gauss)
       state          XX          YY          ZZ    R(velocity)    E-M Angle
         1         2.4722     -2.6238     -9.1829     -3.1115       90.44
         2         4.1642      5.6434    -11.2693     -0.4873       90.03
         3        -0.5081      0.0140      0.7565      0.0875       90.00
         4         0.9447      6.7852      0.4411      2.7237       41.19
         5        -0.1243      0.4521     -0.5037     -0.0586       90.00
         6        10.4127     -6.7650     -8.5820     -1.6448       90.68
         7         0.0516      0.1243      0.6800      0.2853       62.41
         8       -15.9508      9.1544     -7.5280     -4.7748       92.79
         9        -2.4740      2.3482    -14.0762     -4.7340       91.10
        10        -3.7287     -2.1956     -6.5967     -4.1737       94.55
 1/2[<0|r|b>*<b|rxdel|0> + (<0|rxdel|b>*<b|r|0>)*]
 Rotatory Strengths (R) in cgs (10**-40 erg-esu-cm/Gauss)
       state          XX          YY          ZZ     R(length)
         1       -10.6485     -1.5554      5.6445     -2.1865
         2        -9.8208      5.0273      6.5273      0.5779
         3         3.6140     -3.3495     -0.3194     -0.0183
         4         4.7560     -1.0646      0.2121      1.3011
         5         0.0398     -1.0704      0.7997     -0.0770
         6       -17.4211     19.5067     -7.1930     -1.7025
         7         0.1286      0.8239     -0.1042      0.2828
         8        12.1909    -36.4636     13.9387     -3.4447
         9        -3.8369     -9.2480      3.9105     -3.0582
        10       -11.1765    -17.5328     21.6267     -2.3608
  1/2[<0|del|b>*<b|r|0> + (<0|r|b>*<b|del|0>)*] (Au)
       state          X           Y           Z        Dip. S.   Osc.(frdel)
         1        -0.3471     -0.0117      0.0000      0.3589      0.2392
         2        -1.3283     -0.0144      0.0000      1.3427      0.8951
         3        -0.0759     -0.1148      0.0000      0.1908      0.1272
         4        -0.0009      0.0000      0.0000      0.0009      0.0006
         5        -0.0098     -0.0025      0.0000      0.0122      0.0082
         6        -0.0595     -0.0698      0.0000      0.1294      0.0863
         7         0.0000      0.0000     -0.0001      0.0001      0.0001
         8        -0.0061     -0.0272     -0.0001      0.0334      0.0223
         9        -0.1223     -0.1000      0.0000      0.2223      0.1482
        10        -0.0074     -0.0071     -0.0002      0.0147      0.0098

 Excitation energies and oscillator strengths:
 
 Excited State   1:      Singlet-A      1.5917 eV  778.92 nm  f=0.2370  <S**2>=0.000
     105 ->106         0.70031
     105 ->107        -0.11969
 This state for optimization and/or second-order correction.
 Total Energy, E(TD-HF/TD-KS) =  -2254.49412389    
 Copying the excited state density for this state as the 1-particle RhoCI density.
 
 Excited State   2:      Singlet-A      2.6683 eV  464.66 nm  f=0.9197  <S**2>=0.000
     104 ->106         0.16201
     105 ->106         0.12491
     105 ->107         0.67687
 
 Excited State   3:      Singlet-A      3.1656 eV  391.66 nm  f=0.1262  <S**2>=0.000
     104 ->106         0.67631
     105 ->107        -0.15288
     105 ->109         0.11518
 
 Excited State   4:      Singlet-A      3.3798 eV  366.84 nm  f=0.0006  <S**2>=0.000
     105 ->108         0.63849
     105 ->110         0.28129
 
 Excited State   5:      Singlet-A      3.6100 eV  343.44 nm  f=0.0096  <S**2>=0.000
     101 ->106         0.12529
     103 ->106         0.68366
     105 ->109         0.12065
 
 Excited State   6:      Singlet-A      3.8329 eV  323.47 nm  f=0.0856  <S**2>=0.000
     100 ->106        -0.13324
     101 ->106         0.60434
     103 ->106        -0.11929
     105 ->108         0.11713
     105 ->110        -0.26667
     105 ->111        -0.10073
 
 Excited State   7:      Singlet-A      3.8374 eV  323.09 nm  f=0.0001  <S**2>=0.000
     102 ->106         0.64691
     102 ->107         0.27189
 
 Excited State   8:      Singlet-A      3.8807 eV  319.49 nm  f=0.0241  <S**2>=0.000
     100 ->106         0.24306
     101 ->106         0.30813
     105 ->108        -0.22693
     105 ->110         0.51904
 
 Excited State   9:      Singlet-A      3.9232 eV  316.03 nm  f=0.1506  <S**2>=0.000
     103 ->106        -0.10459
     104 ->107         0.28900
     105 ->109         0.61481
 
 Excited State  10:      Singlet-A      4.0742 eV  304.31 nm  f=0.0094  <S**2>=0.000
     100 ->106         0.64104
     105 ->108         0.12310
     105 ->110        -0.24893
 SavETr:  write IOETrn=   770 NScale= 10 NData=  16 NLR=1 NState=   10 LETran=     190.

 **********************************************************************

            Population analysis using the SCF density.

 **********************************************************************

 Orbital symmetries:
       Occupied  (A) (A) (A) (A) (A) (A) (A) (A) (A) (A) (A) (A)
                 (A) (A) (A) (A) (A) (A) (A) (A) (A) (A) (A) (A)
                 (A) (A) (A) (A) (A) (A) (A) (A) (A) (A) (A) (A)
                 (A) (A) (A) (A) (A) (A) (A) (A) (A) (A) (A) (A)
                 (A) (A) (A) (A) (A) (A) (A) (A) (A) (A) (A) (A)
                 (A) (A) (A) (A) (A) (A) (A) (A) (A) (A) (A) (A)
                 (A) (A) (A) (A) (A) (A) (A) (A) (A) (A) (A) (A)
                 (A) (A) (A) (A) (A) (A) (A) (A) (A) (A) (A) (A)
                 (A) (A) (A) (A) (A) (A) (A) (A) (A)
       Virtual   (A) (A) (A) (A) (A) (A) (A) (A) (A) (A) (A) (A)
                 (A) (A) (A) (A) (A) (A) (A) (A) (A) (A) (A) (A)
                 (A) (A) (A) (A) (A) (A) (A) (A) (A) (A) (A) (A)
                 (A) (A) (A) (A) (A) (A) (A) (A) (A) (A) (A) (A)
                 (A) (A) (A) (A) (A) (A) (A) (A) (A) (A) (A) (A)
                 (A) (A) (A) (A) (A) (A) (A) (A) (A) (A) (A) (A)
                 (A) (A) (A) (A) (A) (A) (A) (A) (A) (A) (A) (A)
                 (A) (A) (A) (A) (A) (A) (A) (A) (A) (A) (A) (A)
                 (A) (A) (A) (A) (A) (A) (A) (A) (A) (A) (A) (A)
                 (A) (A) (A) (A) (A) (A) (A) (A) (A) (A) (A) (A)
                 (A) (A) (A) (A) (A) (A) (A) (A) (A) (A) (A) (A)
                 (A) (A) (A) (A) (A) (A) (A) (A) (A) (A) (A) (A)
                 (A) (A) (A) (A) (A) (A) (A) (A) (A) (A) (A) (A)
                 (A) (A) (A) (A) (A) (A) (A) (A) (A) (A) (A) (A)
                 (A) (A) (A) (A) (A) (A) (A) (A) (A) (A) (A) (A)
                 (A) (A) (A) (A) (A) (A) (A) (A) (A) (A) (A) (A)
                 (A) (A) (A) (A) (A) (A) (A) (A) (A) (A) (A) (A)
                 (A) (A) (A) (A) (A) (A) (A) (A) (A) (A) (A) (A)
                 (A) (A) (A) (A) (A) (A) (A) (A) (A) (A) (A) (A)
                 (A) (A) (A) (A) (A) (A) (A) (A) (A) (A) (A) (A)
                 (A) (A) (A) (A) (A) (A) (A) (A) (A) (A) (A) (A)
                 (A) (A) (A) (A) (A) (A) (A) (A) (A) (A) (A) (A)
                 (A) (A) (A) (A) (A) (A) (A) (A) (A) (A) (A) (A)
                 (A) (A) (A) (A) (A) (A) (A) (A) (A) (A) (A) (A)
                 (A) (A) (A) (A) (A) (A) (A) (A) (A) (A) (A) (A)
                 (A) (A) (A) (A) (A) (A) (A) (A) (A) (A) (A) (A)
                 (A) (A) (A) (A) (A) (A) (A) (A) (A) (A) (A) (A)
                 (A) (A) (A) (A) (A) (A) (A) (A) (A) (A) (A) (A)
                 (A) (A) (A) (A) (A) (A) (A) (A) (A) (A) (A) (A)
                 (A) (A) (A) (A) (A) (A) (A) (A) (A) (A) (A) (A)
                 (A) (A) (A) (A) (A) (A) (A) (A) (A) (A) (A) (A)
                 (A) (A) (A) (A) (A) (A) (A) (A) (A) (A) (A) (A)
                 (A) (A) (A) (A) (A) (A) (A) (A) (A) (A) (A) (A)
                 (A) (A) (A) (A) (A) (A) (A) (A) (A) (A) (A) (A)
                 (A) (A) (A) (A) (A) (A) (A) (A) (A) (A) (A) (A)
                 (A) (A) (A) (A) (A) (A) (A) (A) (A) (A) (A) (A)
                 (A) (A) (A) (A) (A) (A) (A) (A) (A) (A) (A) (A)
                 (A) (A) (A) (A) (A) (A) (A) (A) (A) (A) (A) (A)
                 (A) (A) (A) (A) (A) (A) (A) (A) (A)
 The electronic state is 1-A.
 Alpha  occ. eigenvalues --  -89.13878 -89.10623 -89.06661 -19.23775 -19.17503
 Alpha  occ. eigenvalues --  -14.48198 -14.45444 -14.44111 -14.38445 -10.35833
 Alpha  occ. eigenvalues --  -10.35266 -10.31586 -10.31037 -10.30837 -10.30113
 Alpha  occ. eigenvalues --  -10.29358 -10.27955 -10.27456 -10.26833 -10.26761
 Alpha  occ. eigenvalues --  -10.26292 -10.26157 -10.25956 -10.25902 -10.25241
 Alpha  occ. eigenvalues --  -10.25221 -10.24363  -8.11836  -8.08909  -8.05055
 Alpha  occ. eigenvalues --   -6.05622  -6.05029  -6.04846  -6.02601  -6.02202
 Alpha  occ. eigenvalues --   -6.01883  -5.98741  -5.98381  -5.97994  -1.12764
 Alpha  occ. eigenvalues --   -1.08334  -1.04855  -1.04434  -0.95314  -0.94616
 Alpha  occ. eigenvalues --   -0.94444  -0.92767  -0.90932  -0.86026  -0.82530
 Alpha  occ. eigenvalues --   -0.81708  -0.80691  -0.79796  -0.78187  -0.75041
 Alpha  occ. eigenvalues --   -0.70734  -0.69345  -0.67704  -0.67319  -0.64247
 Alpha  occ. eigenvalues --   -0.63611  -0.62945  -0.60511  -0.59717  -0.58111
 Alpha  occ. eigenvalues --   -0.57090  -0.56603  -0.54230  -0.53826  -0.51267
 Alpha  occ. eigenvalues --   -0.50482  -0.49377  -0.48568  -0.47821  -0.47365
 Alpha  occ. eigenvalues --   -0.46935  -0.46514  -0.46479  -0.45446  -0.45201
 Alpha  occ. eigenvalues --   -0.43600  -0.43093  -0.41520  -0.41290  -0.40874
 Alpha  occ. eigenvalues --   -0.39886  -0.39758  -0.39560  -0.38790  -0.38409
 Alpha  occ. eigenvalues --   -0.38273  -0.37834  -0.36846  -0.36162  -0.36139
 Alpha  occ. eigenvalues --   -0.34655  -0.33584  -0.32307  -0.31246  -0.30067
 Alpha  occ. eigenvalues --   -0.29070  -0.28864  -0.28539  -0.26229  -0.20330
 Alpha virt. eigenvalues --   -0.12787  -0.09048  -0.04216  -0.03792  -0.03629
 Alpha virt. eigenvalues --   -0.01439  -0.00799   0.01205   0.02116   0.02682
 Alpha virt. eigenvalues --    0.02808   0.03244   0.04102   0.04167   0.05173
 Alpha virt. eigenvalues --    0.05391   0.06839   0.07790   0.08038   0.08919
 Alpha virt. eigenvalues --    0.09006   0.10435   0.11394   0.12274   0.12558
 Alpha virt. eigenvalues --    0.12987   0.14062   0.14944   0.15380   0.15970
 Alpha virt. eigenvalues --    0.16151   0.16957   0.17437   0.17744   0.19473
 Alpha virt. eigenvalues --    0.20424   0.21257   0.21357   0.22491   0.23291
 Alpha virt. eigenvalues --    0.23817   0.24911   0.25004   0.25886   0.26596
 Alpha virt. eigenvalues --    0.27790   0.28587   0.29355   0.29592   0.31028
 Alpha virt. eigenvalues --    0.32199   0.32890   0.33294   0.34214   0.34413
 Alpha virt. eigenvalues --    0.35467   0.36181   0.36791   0.37250   0.37537
 Alpha virt. eigenvalues --    0.37872   0.38554   0.38675   0.39179   0.39807
 Alpha virt. eigenvalues --    0.40189   0.40473   0.40778   0.41326   0.41441
 Alpha virt. eigenvalues --    0.41920   0.42273   0.42480   0.43134   0.43279
 Alpha virt. eigenvalues --    0.43412   0.44325   0.44457   0.45311   0.46250
 Alpha virt. eigenvalues --    0.46844   0.47691   0.47965   0.48586   0.49294
 Alpha virt. eigenvalues --    0.49532   0.50183   0.50907   0.51423   0.52225
 Alpha virt. eigenvalues --    0.53036   0.53338   0.54442   0.55261   0.56836
 Alpha virt. eigenvalues --    0.56886   0.57165   0.57896   0.58521   0.58635
 Alpha virt. eigenvalues --    0.59176   0.59675   0.60126   0.60499   0.61379
 Alpha virt. eigenvalues --    0.61862   0.62423   0.62534   0.62664   0.63103
 Alpha virt. eigenvalues --    0.64649   0.65613   0.65699   0.66053   0.66647
 Alpha virt. eigenvalues --    0.67204   0.68164   0.68749   0.69396   0.70503
 Alpha virt. eigenvalues --    0.71137   0.71290   0.71820   0.73588   0.73774
 Alpha virt. eigenvalues --    0.74615   0.75161   0.76324   0.76853   0.77235
 Alpha virt. eigenvalues --    0.77891   0.78067   0.78731   0.78912   0.79328
 Alpha virt. eigenvalues --    0.79892   0.81089   0.81791   0.82448   0.82753
 Alpha virt. eigenvalues --    0.83196   0.84221   0.84537   0.85304   0.85522
 Alpha virt. eigenvalues --    0.86805   0.87645   0.88164   0.88662   0.89310
 Alpha virt. eigenvalues --    0.89782   0.90692   0.92013   0.93080   0.94109
 Alpha virt. eigenvalues --    0.94556   0.94875   0.95519   0.95905   0.96186
 Alpha virt. eigenvalues --    0.96948   0.97714   0.97926   0.98825   0.99528
 Alpha virt. eigenvalues --    1.00093   1.01294   1.01435   1.02491   1.03005
 Alpha virt. eigenvalues --    1.04124   1.04485   1.05275   1.05381   1.05637
 Alpha virt. eigenvalues --    1.06733   1.07587   1.08174   1.08507   1.09878
 Alpha virt. eigenvalues --    1.10697   1.11350   1.11772   1.12652   1.12971
 Alpha virt. eigenvalues --    1.14720   1.15442   1.21612   1.23571   1.24103
 Alpha virt. eigenvalues --    1.25258   1.26447   1.26786   1.28946   1.29174
 Alpha virt. eigenvalues --    1.29503   1.29765   1.30733   1.31635   1.32410
 Alpha virt. eigenvalues --    1.34837   1.36520   1.37416   1.40107   1.40955
 Alpha virt. eigenvalues --    1.42187   1.42253   1.42667   1.43576   1.45108
 Alpha virt. eigenvalues --    1.46350   1.46432   1.47404   1.49140   1.49238
 Alpha virt. eigenvalues --    1.50521   1.52350   1.52485   1.52720   1.53368
 Alpha virt. eigenvalues --    1.53785   1.54479   1.54616   1.56633   1.56697
 Alpha virt. eigenvalues --    1.57541   1.58632   1.58786   1.60227   1.60758
 Alpha virt. eigenvalues --    1.60949   1.62317   1.63368   1.64669   1.66045
 Alpha virt. eigenvalues --    1.67837   1.68247   1.68439   1.69228   1.70830
 Alpha virt. eigenvalues --    1.72408   1.73074   1.74020   1.74900   1.75368
 Alpha virt. eigenvalues --    1.75804   1.76112   1.78311   1.78663   1.79313
 Alpha virt. eigenvalues --    1.80480   1.80881   1.81909   1.81935   1.83714
 Alpha virt. eigenvalues --    1.84238   1.85326   1.86378   1.87029   1.89261
 Alpha virt. eigenvalues --    1.89654   1.89708   1.89862   1.90140   1.91690
 Alpha virt. eigenvalues --    1.93212   1.93626   1.94278   1.94524   1.95589
 Alpha virt. eigenvalues --    1.96152   1.99184   2.00380   2.01165   2.02113
 Alpha virt. eigenvalues --    2.02881   2.04095   2.04437   2.06217   2.08424
 Alpha virt. eigenvalues --    2.09101   2.09348   2.09479   2.09871   2.11865
 Alpha virt. eigenvalues --    2.12346   2.15037   2.15728   2.17457   2.17831
 Alpha virt. eigenvalues --    2.19729   2.21694   2.24712   2.25611   2.27337
 Alpha virt. eigenvalues --    2.27555   2.28530   2.30364   2.31449   2.32797
 Alpha virt. eigenvalues --    2.35218   2.37364   2.38162   2.40084   2.42631
 Alpha virt. eigenvalues --    2.42928   2.44068   2.45307   2.45591   2.47692
 Alpha virt. eigenvalues --    2.49261   2.49834   2.51191   2.54899   2.55281
 Alpha virt. eigenvalues --    2.56652   2.57805   2.58246   2.58778   2.59484
 Alpha virt. eigenvalues --    2.59954   2.61185   2.61461   2.63933   2.64169
 Alpha virt. eigenvalues --    2.64659   2.65838   2.66416   2.67107   2.67510
 Alpha virt. eigenvalues --    2.68216   2.69279   2.70200   2.70436   2.71535
 Alpha virt. eigenvalues --    2.72137   2.73251   2.73651   2.76143   2.78830
 Alpha virt. eigenvalues --    2.79155   2.80076   2.80993   2.81607   2.84670
 Alpha virt. eigenvalues --    2.85317   2.87302   2.89390   2.90352   2.90808
 Alpha virt. eigenvalues --    2.91620   2.92158   2.92803   2.93512   2.94591
 Alpha virt. eigenvalues --    2.96256   2.96595   2.98020   3.00866   3.02081
 Alpha virt. eigenvalues --    3.02431   3.05005   3.05665   3.07532   3.10469
 Alpha virt. eigenvalues --    3.14171   3.14841   3.17329   3.17833   3.19916
 Alpha virt. eigenvalues --    3.21424   3.21965   3.24242   3.25476   3.27160
 Alpha virt. eigenvalues --    3.32499   3.33375   3.33966   3.36601   3.37587
 Alpha virt. eigenvalues --    3.38138   3.40405   3.42871   3.46359   3.47859
 Alpha virt. eigenvalues --    3.49053   3.52840   3.54309   3.57455   3.60543
 Alpha virt. eigenvalues --    3.63671   3.65528   3.72454   3.73410   3.77495
 Alpha virt. eigenvalues --    3.78431   3.80845   3.85905   3.88636   3.90014
 Alpha virt. eigenvalues --    3.91269   3.96493   3.96804   3.97768   3.99902
 Alpha virt. eigenvalues --    4.04717   4.07124   4.09072   4.10698   4.14257
 Alpha virt. eigenvalues --    4.15929   4.21275   4.37671   4.49142   4.58410
 Alpha virt. eigenvalues --    4.69783   4.74480   4.82562   4.83649   4.83912
 Alpha virt. eigenvalues --    4.96103   5.08677   5.17125   5.34442   5.61255
 Alpha virt. eigenvalues --    5.85667   7.78334   7.82050   7.85903  17.19661
 Alpha virt. eigenvalues --   17.24284  17.28499  17.34941  17.38333  17.51856
 Alpha virt. eigenvalues --   17.53756  17.56588  17.60535  23.52932  23.58915
 Alpha virt. eigenvalues --   23.68052  23.77700  23.87619  23.89763  23.96633
 Alpha virt. eigenvalues --   24.00046  24.00691  24.05139  24.07736  24.12602
 Alpha virt. eigenvalues --   24.13489  24.17815  24.19966  24.25389  24.26514
 Alpha virt. eigenvalues --   24.54708  35.57533  35.68005  35.69868  35.94145
 Alpha virt. eigenvalues --   49.99697  50.16157 189.08046 189.12854 189.16957
          Condensed to atoms (all electrons):
               1          2          3          4          5          6
     1  N    6.618034   0.339489  -0.045633   0.003545   0.000486   0.004539
     2  C    0.339489   4.880090   0.458917  -0.038136  -0.043140  -0.028482
     3  C   -0.045633   0.458917   4.935870   0.534231  -0.069280  -0.038190
     4  C    0.003545  -0.038136   0.534231   4.834736   0.500904  -0.053048
     5  C    0.000486  -0.043140  -0.069280   0.500904   4.905584   0.515302
     6  C    0.004539  -0.028482  -0.038190  -0.053048   0.515302   4.823410
     7  C   -0.045215   0.440018  -0.052779  -0.040423  -0.070771   0.519537
     8  C    0.002205  -0.000118   0.000003   0.000000   0.000000  -0.000007
     9  C    0.005701  -0.000369  -0.000015   0.000000   0.000000   0.000002
    10  C   -0.010982   0.006193  -0.000742   0.000000   0.000001  -0.000009
    11  N   -0.003775  -0.000216  -0.000063   0.000000   0.000000   0.000000
    12  S   -0.000429   0.000101  -0.000009   0.000000   0.000000   0.000000
    13  N   -0.000117   0.000002   0.000000   0.000000   0.000000   0.000000
    14  C    0.316560  -0.074053   0.008242  -0.000245   0.000032   0.000450
    15  S   -0.043857  -0.003112  -0.000020   0.000067  -0.000152   0.001673
    16  O    0.000000   0.000000   0.000000   0.000000   0.000000   0.000000
    17  C    0.000000   0.000000   0.000000   0.000000   0.000000   0.000000
    18  C    0.000000   0.000000   0.000000   0.000000   0.000000   0.000000
    19  C    0.000000   0.000000   0.000000   0.000000   0.000000   0.000000
    20  N    0.000000   0.000000   0.000000   0.000000   0.000000   0.000000
    21  C    0.000000   0.000000   0.000000   0.000000   0.000000   0.000000
    22  C    0.000000   0.000000   0.000000   0.000000   0.000000   0.000000
    23  C    0.000000   0.000000   0.000000   0.000000   0.000000   0.000000
    24  C    0.000000   0.000000   0.000000   0.000000   0.000000   0.000000
    25  C   -0.000087  -0.000005   0.000000   0.000000   0.000000   0.000000
    26  S   -0.000002   0.000013   0.000000   0.000000   0.000000  -0.000001
    27  O    0.000000   0.000000   0.000000   0.000000   0.000000   0.000000
    28  H    0.390432  -0.041077  -0.001765   0.000415   0.000014  -0.000241
    29  H   -0.005619  -0.061981   0.417578  -0.022306   0.007765  -0.000787
    30  H   -0.000172   0.009243  -0.042225   0.423279  -0.043210   0.007783
    31  H    0.000010  -0.001276   0.009122  -0.045730   0.425825  -0.044360
    32  H   -0.000168   0.008736  -0.000494   0.007748  -0.042817   0.422512
    33  H   -0.006229  -0.060469   0.004340  -0.000672   0.007117  -0.015911
    34  H    0.000000   0.000000   0.000000   0.000000   0.000000   0.000000
    35  H    0.000000   0.000000   0.000000   0.000000   0.000000   0.000000
    36  H    0.000000   0.000000   0.000000   0.000000   0.000000   0.000000
    37  H    0.000000   0.000000   0.000000   0.000000   0.000000   0.000000
               7          8          9         10         11         12
     1  N   -0.045215   0.002205   0.005701  -0.010982  -0.003775  -0.000429
     2  C    0.440018  -0.000118  -0.000369   0.006193  -0.000216   0.000101
     3  C   -0.052779   0.000003  -0.000015  -0.000742  -0.000063  -0.000009
     4  C   -0.040423   0.000000   0.000000   0.000000   0.000000   0.000000
     5  C   -0.070771   0.000000   0.000000   0.000001   0.000000   0.000000
     6  C    0.519537  -0.000007   0.000002  -0.000009   0.000000   0.000000
     7  C    4.971632   0.000375   0.000005   0.001025  -0.000005  -0.000001
     8  C    0.000375   5.789863   0.260823  -0.048133   0.015574   0.016383
     9  C    0.000005   0.260823   5.008603   0.367284  -0.128956  -0.160252
    10  C    0.001025  -0.048133   0.367284   5.214974   0.490043  -0.185091
    11  N   -0.000005   0.015574  -0.128956   0.490043   6.945999   0.323850
    12  S   -0.000001   0.016383  -0.160252  -0.185091   0.323850  15.092925
    13  N    0.000000  -0.090056   0.516038  -0.138957  -0.058547   0.316373
    14  C    0.003511  -0.088774  -0.045263   0.260265  -0.082875   0.016746
    15  S   -0.003986   0.288356  -0.090932  -0.102768   0.005912   0.001538
    16  O    0.000000   0.000000   0.000000   0.000000   0.000000   0.000000
    17  C    0.000000   0.000000   0.000000   0.000000   0.000000   0.000000
    18  C    0.000000   0.000006   0.000000   0.000000   0.000000   0.000000
    19  C    0.000000  -0.000001   0.000000   0.000000   0.000000   0.000000
    20  N    0.000000   0.000000   0.000000   0.000000   0.000000   0.000000
    21  C    0.000000  -0.000672   0.000002   0.000000   0.000000   0.000000
    22  C    0.000000   0.001743  -0.000315   0.000013   0.000000   0.000000
    23  C    0.000000   0.014728   0.000078  -0.000038   0.000000  -0.000002
    24  C    0.000000  -0.046542  -0.020872   0.000379  -0.000001   0.000197
    25  C    0.000007   0.324172   0.010637   0.018956  -0.000461  -0.002128
    26  S   -0.000079  -0.077785   0.006307  -0.000192  -0.000008   0.000093
    27  O    0.000000   0.000000   0.000000   0.000000   0.000000   0.000000
    28  H    0.004016  -0.000215   0.003012  -0.008482   0.015687  -0.000796
    29  H    0.006799  -0.000002  -0.000006  -0.000078  -0.000098   0.000000
    30  H   -0.000848   0.000000   0.000000   0.000000   0.000000   0.000000
    31  H    0.009701   0.000000   0.000000   0.000000   0.000000   0.000000
    32  H   -0.039759   0.000000   0.000000  -0.000001   0.000000   0.000000
    33  H    0.402574  -0.000897  -0.000192   0.000551  -0.000006   0.000001
    34  H    0.000000   0.000000   0.000000   0.000000   0.000000   0.000000
    35  H    0.000000   0.000016   0.000001   0.000000   0.000000   0.000000
    36  H    0.000000  -0.000083  -0.000028  -0.000001   0.000000  -0.000001
    37  H    0.000000  -0.023999   0.005318   0.001704   0.000056  -0.000099
              13         14         15         16         17         18
     1  N   -0.000117   0.316560  -0.043857   0.000000   0.000000   0.000000
     2  C    0.000002  -0.074053  -0.003112   0.000000   0.000000   0.000000
     3  C    0.000000   0.008242  -0.000020   0.000000   0.000000   0.000000
     4  C    0.000000  -0.000245   0.000067   0.000000   0.000000   0.000000
     5  C    0.000000   0.000032  -0.000152   0.000000   0.000000   0.000000
     6  C    0.000000   0.000450   0.001673   0.000000   0.000000   0.000000
     7  C    0.000000   0.003511  -0.003986   0.000000   0.000000   0.000000
     8  C   -0.090056  -0.088774   0.288356   0.000000   0.000000   0.000006
     9  C    0.516038  -0.045263  -0.090932   0.000000   0.000000   0.000000
    10  C   -0.138957   0.260265  -0.102768   0.000000   0.000000   0.000000
    11  N   -0.058547  -0.082875   0.005912   0.000000   0.000000   0.000000
    12  S    0.316373   0.016746   0.001538   0.000000   0.000000   0.000000
    13  N    6.968178   0.017134   0.007340   0.000000   0.000000   0.000000
    14  C    0.017134   5.310237   0.343948   0.000000   0.000000   0.000000
    15  S    0.007340   0.343948  15.205124   0.000000   0.000000   0.000002
    16  O    0.000000   0.000000   0.000000   7.800653   0.380677  -0.096532
    17  C    0.000000   0.000000   0.000000   0.380677   4.392905   0.149818
    18  C    0.000000   0.000000   0.000002  -0.096532   0.149818   6.053357
    19  C    0.000000   0.000000   0.000000  -0.020706  -0.065460   0.083575
    20  N    0.000000   0.000000   0.000000  -0.002161  -0.001991  -0.124519
    21  C    0.000000   0.000000   0.000120   0.009419  -0.014179   0.433551
    22  C   -0.000003  -0.000012  -0.002723  -0.000038   0.014228  -0.089207
    23  C   -0.000074   0.000011  -0.000041   0.000011   0.000144  -0.020387
    24  C   -0.006759  -0.000019   0.005788   0.000000  -0.000006   0.000181
    25  C   -0.007457   0.000119  -0.084128   0.000000   0.000010  -0.000290
    26  S   -0.000112  -0.001708   0.014880  -0.000010  -0.000404   0.009579
    27  O    0.000000   0.000000   0.000000  -0.071577   0.691320  -0.137583
    28  H    0.000062  -0.048360   0.002573   0.000000   0.000000   0.000000
    29  H    0.000000   0.000210  -0.000122   0.000000   0.000000   0.000000
    30  H    0.000000   0.000013   0.000001   0.000000   0.000000   0.000000
    31  H    0.000000  -0.000002   0.000002   0.000000   0.000000   0.000000
    32  H    0.000000  -0.000014  -0.000019   0.000000   0.000000   0.000000
    33  H    0.000001   0.000721   0.006511   0.000000   0.000000   0.000000
    34  H    0.000000   0.000000   0.000000   0.315285  -0.029318   0.005955
    35  H    0.000000   0.000000  -0.000013   0.001475  -0.011848  -0.048168
    36  H   -0.000023   0.000000  -0.000003   0.000003   0.000128   0.004985
    37  H    0.015483  -0.000100  -0.000570   0.000000   0.000000  -0.000004
              19         20         21         22         23         24
     1  N    0.000000   0.000000   0.000000   0.000000   0.000000   0.000000
     2  C    0.000000   0.000000   0.000000   0.000000   0.000000   0.000000
     3  C    0.000000   0.000000   0.000000   0.000000   0.000000   0.000000
     4  C    0.000000   0.000000   0.000000   0.000000   0.000000   0.000000
     5  C    0.000000   0.000000   0.000000   0.000000   0.000000   0.000000
     6  C    0.000000   0.000000   0.000000   0.000000   0.000000   0.000000
     7  C    0.000000   0.000000   0.000000   0.000000   0.000000   0.000000
     8  C   -0.000001   0.000000  -0.000672   0.001743   0.014728  -0.046542
     9  C    0.000000   0.000000   0.000002  -0.000315   0.000078  -0.020872
    10  C    0.000000   0.000000   0.000000   0.000013  -0.000038   0.000379
    11  N    0.000000   0.000000   0.000000   0.000000   0.000000  -0.000001
    12  S    0.000000   0.000000   0.000000   0.000000  -0.000002   0.000197
    13  N    0.000000   0.000000   0.000000  -0.000003  -0.000074  -0.006759
    14  C    0.000000   0.000000   0.000000  -0.000012   0.000011  -0.000019
    15  S    0.000000   0.000000   0.000120  -0.002723  -0.000041   0.005788
    16  O   -0.020706  -0.002161   0.009419  -0.000038   0.000011   0.000000
    17  C   -0.065460  -0.001991  -0.014179   0.014228   0.000144  -0.000006
    18  C    0.083575  -0.124519   0.433551  -0.089207  -0.020387   0.000181
    19  C    5.048409   1.025279  -0.079272  -0.028863  -0.005075  -0.000187
    20  N    1.025279   6.387704   0.001801  -0.001644  -0.003340  -0.000001
    21  C   -0.079272   0.001801   4.880289   0.367901  -0.026147   0.010057
    22  C   -0.028863  -0.001644   0.367901   5.624370   0.379429  -0.054215
    23  C   -0.005075  -0.003340  -0.026147   0.379429   4.867930   0.542975
    24  C   -0.000187  -0.000001   0.010057  -0.054215   0.542975   4.902871
    25  C   -0.000052  -0.000006  -0.004348  -0.113927  -0.029181   0.367762
    26  S   -0.000505  -0.000031  -0.046036   0.278630  -0.104941  -0.081582
    27  O    0.003390  -0.000013   0.010488   0.003698   0.000006   0.000000
    28  H    0.000000   0.000000   0.000000   0.000000   0.000000   0.000000
    29  H    0.000000   0.000000   0.000000   0.000000   0.000000   0.000000
    30  H    0.000000   0.000000   0.000000   0.000000   0.000000   0.000000
    31  H    0.000000   0.000000   0.000000   0.000000   0.000000   0.000000
    32  H    0.000000   0.000000   0.000000   0.000000   0.000000   0.000000
    33  H    0.000000   0.000000   0.000000   0.000000   0.000000   0.000001
    34  H    0.008844   0.003261  -0.000627  -0.000065   0.000002   0.000000
    35  H    0.008668   0.000000   0.399210  -0.025783   0.007263  -0.000587
    36  H    0.003264   0.006735  -0.010743  -0.051670   0.425585  -0.037188
    37  H   -0.000005  -0.000006   0.000030   0.011405  -0.043565   0.431499
              25         26         27         28         29         30
     1  N   -0.000087  -0.000002   0.000000   0.390432  -0.005619  -0.000172
     2  C   -0.000005   0.000013   0.000000  -0.041077  -0.061981   0.009243
     3  C    0.000000   0.000000   0.000000  -0.001765   0.417578  -0.042225
     4  C    0.000000   0.000000   0.000000   0.000415  -0.022306   0.423279
     5  C    0.000000   0.000000   0.000000   0.000014   0.007765  -0.043210
     6  C    0.000000  -0.000001   0.000000  -0.000241  -0.000787   0.007783
     7  C    0.000007  -0.000079   0.000000   0.004016   0.006799  -0.000848
     8  C    0.324172  -0.077785   0.000000  -0.000215  -0.000002   0.000000
     9  C    0.010637   0.006307   0.000000   0.003012  -0.000006   0.000000
    10  C    0.018956  -0.000192   0.000000  -0.008482  -0.000078   0.000000
    11  N   -0.000461  -0.000008   0.000000   0.015687  -0.000098   0.000000
    12  S   -0.002128   0.000093   0.000000  -0.000796   0.000000   0.000000
    13  N   -0.007457  -0.000112   0.000000   0.000062   0.000000   0.000000
    14  C    0.000119  -0.001708   0.000000  -0.048360   0.000210   0.000013
    15  S   -0.084128   0.014880   0.000000   0.002573  -0.000122   0.000001
    16  O    0.000000  -0.000010  -0.071577   0.000000   0.000000   0.000000
    17  C    0.000010  -0.000404   0.691320   0.000000   0.000000   0.000000
    18  C   -0.000290   0.009579  -0.137583   0.000000   0.000000   0.000000
    19  C   -0.000052  -0.000505   0.003390   0.000000   0.000000   0.000000
    20  N   -0.000006  -0.000031  -0.000013   0.000000   0.000000   0.000000
    21  C   -0.004348  -0.046036   0.010488   0.000000   0.000000   0.000000
    22  C   -0.113927   0.278630   0.003698   0.000000   0.000000   0.000000
    23  C   -0.029181  -0.104941   0.000006   0.000000   0.000000   0.000000
    24  C    0.367762  -0.081582   0.000000   0.000000   0.000000   0.000000
    25  C    5.405099   0.341479   0.000000   0.000025   0.000000   0.000000
    26  S    0.341479  15.334558  -0.000719  -0.000007   0.000000   0.000000
    27  O    0.000000  -0.000719   7.806459   0.000000   0.000000   0.000000
    28  H    0.000025  -0.000007   0.000000   0.416668   0.004598  -0.000061
    29  H    0.000000   0.000000   0.000000   0.004598   0.549030  -0.008688
    30  H    0.000000   0.000000   0.000000  -0.000061  -0.008688   0.545584
    31  H    0.000000   0.000000   0.000000  -0.000003  -0.000226  -0.007610
    32  H    0.000000  -0.000001   0.000000   0.000022   0.000048  -0.000290
    33  H   -0.000111   0.000136   0.000000  -0.000470  -0.000170   0.000048
    34  H    0.000000   0.000015   0.003423   0.000000   0.000000   0.000000
    35  H    0.000182  -0.005067   0.032699   0.000000   0.000000   0.000000
    36  H    0.011072   0.006025  -0.000001   0.000000   0.000000   0.000000
    37  H   -0.043756   0.006168   0.000000   0.000000   0.000000   0.000000
              31         32         33         34         35         36
     1  N    0.000010  -0.000168  -0.006229   0.000000   0.000000   0.000000
     2  C   -0.001276   0.008736  -0.060469   0.000000   0.000000   0.000000
     3  C    0.009122  -0.000494   0.004340   0.000000   0.000000   0.000000
     4  C   -0.045730   0.007748  -0.000672   0.000000   0.000000   0.000000
     5  C    0.425825  -0.042817   0.007117   0.000000   0.000000   0.000000
     6  C   -0.044360   0.422512  -0.015911   0.000000   0.000000   0.000000
     7  C    0.009701  -0.039759   0.402574   0.000000   0.000000   0.000000
     8  C    0.000000   0.000000  -0.000897   0.000000   0.000016  -0.000083
     9  C    0.000000   0.000000  -0.000192   0.000000   0.000001  -0.000028
    10  C    0.000000  -0.000001   0.000551   0.000000   0.000000  -0.000001
    11  N    0.000000   0.000000  -0.000006   0.000000   0.000000   0.000000
    12  S    0.000000   0.000000   0.000001   0.000000   0.000000  -0.000001
    13  N    0.000000   0.000000   0.000001   0.000000   0.000000  -0.000023
    14  C   -0.000002  -0.000014   0.000721   0.000000   0.000000   0.000000
    15  S    0.000002  -0.000019   0.006511   0.000000  -0.000013  -0.000003
    16  O    0.000000   0.000000   0.000000   0.315285   0.001475   0.000003
    17  C    0.000000   0.000000   0.000000  -0.029318  -0.011848   0.000128
    18  C    0.000000   0.000000   0.000000   0.005955  -0.048168   0.004985
    19  C    0.000000   0.000000   0.000000   0.008844   0.008668   0.003264
    20  N    0.000000   0.000000   0.000000   0.003261   0.000000   0.006735
    21  C    0.000000   0.000000   0.000000  -0.000627   0.399210  -0.010743
    22  C    0.000000   0.000000   0.000000  -0.000065  -0.025783  -0.051670
    23  C    0.000000   0.000000   0.000000   0.000002   0.007263   0.425585
    24  C    0.000000   0.000000   0.000001   0.000000  -0.000587  -0.037188
    25  C    0.000000   0.000000  -0.000111   0.000000   0.000182   0.011072
    26  S    0.000000  -0.000001   0.000136   0.000015  -0.005067   0.006025
    27  O    0.000000   0.000000   0.000000   0.003423   0.032699  -0.000001
    28  H   -0.000003   0.000022  -0.000470   0.000000   0.000000   0.000000
    29  H   -0.000226   0.000048  -0.000170   0.000000   0.000000   0.000000
    30  H   -0.007610  -0.000290   0.000048   0.000000   0.000000   0.000000
    31  H    0.546150  -0.007703  -0.000231   0.000000   0.000000   0.000000
    32  H   -0.007703   0.543452  -0.008465   0.000000   0.000000   0.000000
    33  H   -0.000231  -0.008465   0.530895   0.000000   0.000000   0.000000
    34  H    0.000000   0.000000   0.000000   0.435550  -0.000391   0.000016
    35  H    0.000000   0.000000   0.000000  -0.000391   0.503285   0.000085
    36  H    0.000000   0.000000   0.000000   0.000016   0.000085   0.500793
    37  H    0.000000   0.000000   0.000000   0.000000   0.000001  -0.005015
              37
     1  N    0.000000
     2  C    0.000000
     3  C    0.000000
     4  C    0.000000
     5  C    0.000000
     6  C    0.000000
     7  C    0.000000
     8  C   -0.023999
     9  C    0.005318
    10  C    0.001704
    11  N    0.000056
    12  S   -0.000099
    13  N    0.015483
    14  C   -0.000100
    15  S   -0.000570
    16  O    0.000000
    17  C    0.000000
    18  C   -0.000004
    19  C   -0.000005
    20  N   -0.000006
    21  C    0.000030
    22  C    0.011405
    23  C   -0.043565
    24  C    0.431499
    25  C   -0.043756
    26  S    0.006168
    27  O    0.000000
    28  H    0.000000
    29  H    0.000000
    30  H    0.000000
    31  H    0.000000
    32  H    0.000000
    33  H    0.000000
    34  H    0.000000
    35  H    0.000001
    36  H   -0.005015
    37  H    0.510815
 Mulliken charges:
               1
     1  N   -0.518717
     2  C    0.209629
     3  C   -0.117086
     4  C   -0.104363
     5  C   -0.093660
     6  C   -0.114171
     7  C   -0.105333
     8  C   -0.336963
     9  C    0.263391
    10  C    0.134087
    11  N   -0.522110
    12  S    0.580603
    13  N   -0.538507
    14  C    0.063225
    15  S    0.448612
    16  O   -0.316499
    17  C    0.493975
    18  C   -0.224319
    19  C    0.018696
    20  N   -0.291067
    21  C    0.069157
    22  C   -0.312952
    23  C   -0.005371
    24  C   -0.013750
    25  C   -0.193585
    26  S    0.321305
    27  O   -0.341588
    28  H    0.263953
    29  H    0.114055
    30  H    0.117154
    31  H    0.116333
    32  H    0.117211
    33  H    0.140928
    34  H    0.258049
    35  H    0.138972
    36  H    0.146065
    37  H    0.134642
 Sum of Mulliken charges =   0.00000
 Mulliken charges with hydrogens summed into heavy atoms:
               1
     1  N   -0.254765
     2  C    0.209629
     3  C   -0.003031
     4  C    0.012791
     5  C    0.022673
     6  C    0.003041
     7  C    0.035595
     8  C   -0.336963
     9  C    0.263391
    10  C    0.134087
    11  N   -0.522110
    12  S    0.580603
    13  N   -0.538507
    14  C    0.063225
    15  S    0.448612
    16  O   -0.058450
    17  C    0.493975
    18  C   -0.224319
    19  C    0.018696
    20  N   -0.291067
    21  C    0.208129
    22  C   -0.312952
    23  C    0.140694
    24  C    0.120893
    25  C   -0.193585
    26  S    0.321305
    27  O   -0.341588
 Electronic spatial extent (au):  <R**2>=          18680.4362
 Charge=              0.0000 electrons
 Dipole moment (field-independent basis, Debye):
    X=            -12.9734    Y=              1.1826    Z=             -0.0228  Tot=             13.0272
 Quadrupole moment (field-independent basis, Debye-Ang):
   XX=           -191.8053   YY=           -175.7409   ZZ=           -179.8184
   XY=             18.3873   XZ=              1.9171   YZ=             -1.0960
 Traceless Quadrupole moment (field-independent basis, Debye-Ang):
   XX=             -9.3505   YY=              6.7140   ZZ=              2.6365
   XY=             18.3873   XZ=              1.9171   YZ=             -1.0960
 Octapole moment (field-independent basis, Debye-Ang**2):
  XXX=           -585.4484  YYY=             20.9414  ZZZ=              0.0011  XYY=           -172.1332
  XXY=             49.6676  XXZ=            -18.1787  XZZ=             27.5185  YZZ=              5.3361
  YYZ=              5.3333  XYZ=              1.1227
 Hexadecapole moment (field-independent basis, Debye-Ang**3):
 XXXX=         -20876.8597 YYYY=          -4555.8610 ZZZZ=           -210.2488 XXXY=           1026.9107
 XXXZ=            169.3528 YYYX=            269.1863 YYYZ=            -20.4183 ZZZX=             -1.1185
 ZZZY=              1.7902 XXYY=          -4725.1753 XXZZ=          -3527.8516 YYZZ=           -871.2145
 XXYZ=              0.5407 YYXZ=            -11.3146 ZZXY=           -111.4266
 N-N= 2.574724113039D+03 E-N=-1.045919187416D+04  KE= 2.249230699472D+03
 1\1\GINC-N050\SP\RPBE1PBE TD-FC\6-311G(d,p)\C18H10N4O2S3\R2652\11-Sep-
 2021\0\\#N PBE1PBE/6-311G(d,p) TD(NStates=10)\\Name\\0,1\N,0,-4.334466
 ,0.091766,-0.012098\C,0,-4.94197,-1.170533,0.004853\C,0,-6.328753,-1.2
 13314,-0.218484\C,0,-7.002632,-2.424504,-0.212842\C,0,-6.312191,-3.616
 267,0.013202\C,0,-4.940634,-3.574271,0.240283\C,0,-4.249417,-2.364901,
 0.24074\C,0,-0.474431,0.860577,-0.018027\C,0,-1.218523,2.052229,0.0037
 21\C,0,-2.65149,1.845206,0.024011\N,0,-3.38276,2.960053,0.042894\S,0,-
 2.298314,4.190193,0.04147\N,0,-0.885998,3.353582,0.014083\C,0,-3.03635
 4,0.485715,0.013173\S,0,-1.609346,-0.495226,-0.027785\O,0,8.054517,-1.
 577076,-0.010016\C,0,6.738194,-1.891467,-0.017132\C,0,5.777462,-0.7439
 68,-0.010336\C,0,6.301212,0.571355,0.003465\N,0,6.788499,1.624046,0.01
 4797\C,0,4.436397,-1.034883,-0.017817\C,0,3.317712,-0.170759,-0.014335
 \C,0,3.208502,1.218811,-0.001343\C,0,1.898244,1.693908,-0.001857\C,0,0
 .932798,0.680079,-0.014568\S,0,1.698955,-0.887135,-0.02769\O,0,6.38700
 7,-3.04296,-0.02836\H,0,-4.973091,0.875945,-0.069114\H,0,-6.870426,-0.
 290628,-0.400821\H,0,-8.071919,-2.438539,-0.38834\H,0,-6.838887,-4.562
 569,0.01387\H,0,-4.392185,-4.490411,0.425331\H,0,-3.189181,-2.369351,0
 .446427\H,0,8.185026,-0.618623,-0.00128\H,0,4.237378,-2.103645,-0.0281
 32\H,0,4.072089,1.868944,0.008468\H,0,1.626597,2.739637,0.006703\\Vers
 ion=ES64L-G09RevD.01\State=1-A\HF=-2254.5526194\RMSD=3.860e-09\PG=C01 
 [X(C18H10N4O2S3)]\\@


 WOE UNTO THEM THAT CALL EVIL GOOD, AND GOOD EVIL      
 Job cpu time:       0 days  1 hours 55 minutes 38.8 seconds.
 File lengths (MBytes):  RWF=    795 Int=      0 D2E=      0 Chk=    115 Scr=      1
 Normal termination of Gaussian 09 at Sat Sep 11 09:24:03 2021.
