 Entering Gaussian System, Link 0=g16
 Input=ES.com
 Output=CAMB3LYP.out
 Initial command:
 /usr/local/apps/gaussian/g16-c01-avx2//g16/l1.exe "/tmp/r2532.910717.maple/Gau-39925.inp" -scrdir="/tmp/r2532.910717.maple/"
 Entering Link 1 = /usr/local/apps/gaussian/g16-c01-avx2//g16/l1.exe PID=     39926.
  
 Copyright (c) 1988-2019, Gaussian, Inc.  All Rights Reserved.
  
 This is part of the Gaussian(R) 16 program.  It is based on
 the Gaussian(R) 09 system (copyright 2009, Gaussian, Inc.),
 the Gaussian(R) 03 system (copyright 2003, Gaussian, Inc.),
 the Gaussian(R) 98 system (copyright 1998, Gaussian, Inc.),
 the Gaussian(R) 94 system (copyright 1995, Gaussian, Inc.),
 the Gaussian 92(TM) system (copyright 1992, Gaussian, Inc.),
 the Gaussian 90(TM) system (copyright 1990, Gaussian, Inc.),
 the Gaussian 88(TM) system (copyright 1988, Gaussian, Inc.),
 the Gaussian 86(TM) system (copyright 1986, Carnegie Mellon
 University), and the Gaussian 82(TM) system (copyright 1983,
 Carnegie Mellon University). Gaussian is a federally registered
 trademark of Gaussian, Inc.
  
 This software contains proprietary and confidential information,
 including trade secrets, belonging to Gaussian, Inc.
  
 This software is provided under written license and may be
 used, copied, transmitted, or stored only in accord with that
 written license.
  
 The following legend is applicable only to US Government
 contracts under FAR:
  
                    RESTRICTED RIGHTS LEGEND
  
 Use, reproduction and disclosure by the US Government is
 subject to restrictions as set forth in subparagraphs (a)
 and (c) of the Commercial Computer Software - Restricted
 Rights clause in FAR 52.227-19.
  
 Gaussian, Inc.
 340 Quinnipiac St., Bldg. 40, Wallingford CT 06492
  
  
 ---------------------------------------------------------------
 Warning -- This program may not be used in any manner that
 competes with the business of Gaussian, Inc. or will provide
 assistance to any competitor of Gaussian, Inc.  The licensee
 of this program is prohibited from giving any competitor of
 Gaussian, Inc. access to this program.  By using this program,
 the user acknowledges that Gaussian, Inc. is engaged in the
 business of creating and licensing software in the field of
 computational chemistry and represents and warrants to the
 licensee that it is not a competitor of Gaussian, Inc. and that
 it will not use this program in any manner prohibited above.
 ---------------------------------------------------------------
  

 Cite this work as:
 Gaussian 16, Revision C.01,
 M. J. Frisch, G. W. Trucks, H. B. Schlegel, G. E. Scuseria, 
 M. A. Robb, J. R. Cheeseman, G. Scalmani, V. Barone, 
 G. A. Petersson, H. Nakatsuji, X. Li, M. Caricato, A. V. Marenich, 
 J. Bloino, B. G. Janesko, R. Gomperts, B. Mennucci, H. P. Hratchian, 
 J. V. Ortiz, A. F. Izmaylov, J. L. Sonnenberg, D. Williams-Young, 
 F. Ding, F. Lipparini, F. Egidi, J. Goings, B. Peng, A. Petrone, 
 T. Henderson, D. Ranasinghe, V. G. Zakrzewski, J. Gao, N. Rega, 
 G. Zheng, W. Liang, M. Hada, M. Ehara, K. Toyota, R. Fukuda, 
 J. Hasegawa, M. Ishida, T. Nakajima, Y. Honda, O. Kitao, H. Nakai, 
 T. Vreven, K. Throssell, J. A. Montgomery, Jr., J. E. Peralta, 
 F. Ogliaro, M. J. Bearpark, J. J. Heyd, E. N. Brothers, K. N. Kudin, 
 V. N. Staroverov, T. A. Keith, R. Kobayashi, J. Normand, 
 K. Raghavachari, A. P. Rendell, J. C. Burant, S. S. Iyengar, 
 J. Tomasi, M. Cossi, J. M. Millam, M. Klene, C. Adamo, R. Cammi, 
 J. W. Ochterski, R. L. Martin, K. Morokuma, O. Farkas, 
 J. B. Foresman, and D. J. Fox, Gaussian, Inc., Wallingford CT, 2019.
 
 ******************************************
 Gaussian 16:  ES64L-G16RevC.01  3-Jul-2019
                27-Jul-2021 
 ******************************************
 %mem=8gb
 ---------------------------------------
 #N TD(NStates=10) CAM-B3lYP/6-311G(d,p)
 ---------------------------------------
 1/38=1,172=1/1;
 2/12=2,17=6,18=5,40=1/2;
 3/5=4,6=6,7=101,11=9,25=1,30=1,74=-40/1,2,3,8;
 4//1;
 5/5=2,38=5/2;
 8/6=1,10=2,108=10/1;
 9/41=10,42=1,70=2/14;
 6/7=2,8=2,9=2,10=2/1;
 99/5=1,9=1/99;
 ---------
 C25H20ON4
 ---------
 Symbolic Z-matrix:
 Charge =  0 Multiplicity = 1
 6                    -4.63103   5.36114  -2.41197 
 6                     0.95222   5.7407   -1.47375 
 6                    -0.14643  -0.44537   0.14703 
 6                    -0.94709   0.69217  -0.06834 
 6                    -2.35902   0.42957  -0.01601 
 6                    -2.67918  -0.90898   0.26019 
 1                    -5.28866  -4.6171    1.15698 
 1                     0.86051   7.7998   -0.84788 
 6                    -2.78497   2.62956  -0.53128 
 6                    -1.35381   2.91407  -0.48195 
 6                     7.82472  -5.7761   -3.62397 
 6                     8.82059   3.04506   3.91574 
 6                    -3.95817  -1.57433   0.38948 
 6                    -5.17656  -0.89074   0.15151 
 1                    -7.29137  -0.958     0.07256 
 6                    -4.04353  -2.93828   0.75394 
 1                    -5.14123   0.14972  -0.13512 
 6                     1.29755  -0.5986    0.15035 
 6                     2.16246   0.50572   0.30689 
 6                     3.53679   0.35163   0.31772 
 6                     4.13247  -0.91835   0.17165 
 6                     3.27353  -2.02732   0.01813 
 6                     1.90153  -1.86533   0.00625 
 1                     1.73978   1.49481   0.40786 
 1                     4.16424   1.22527   0.43501 
 6                    -5.26243  -3.57082   0.8727 
 1                     3.69157  -3.01869  -0.09437 
 1                     1.2846   -2.74706  -0.12716 
 6                     0.40428   6.81886  -0.77922 
 6                    -0.73109   6.62844   0.00725 
 6                    -6.47915  -2.88962   0.63883 
 1                    -6.58801   6.14375  -1.97153 
 6                    -6.39493  -1.52744   0.27171 
 6                     6.37174  -0.11304   0.80588 
 6                     7.42482   0.47413   0.09152 
 6                     8.27176   1.38396   0.70383 
 6                     8.07876   1.74266   2.0451 
 6                     7.02709   1.16534   2.76374 
 6                     6.19113   0.23705   2.14427 
 1                     7.57915   0.20931  -0.94769 
 1                     9.08849   1.83969   0.157 
 6                    -7.69507  -3.64739   0.79041 
 1                     6.85705   1.41503   3.80207 
 1                     5.3876   -0.21657   2.7123 
 6                     6.14109  -2.19024  -0.47003 
 6                     7.05258  -2.9933    0.2289 
 6                     7.68093  -4.05723  -0.3984 
 6                     7.40267  -4.3563   -1.73934 
 6                     6.49101  -3.56265  -2.4428 
 6                     5.87783  -2.48285  -1.80861 
 1                     7.26951  -2.77601   1.26796 
 1                     8.38737  -4.68045   0.13664 
 1                     6.26167  -3.7615   -3.48071 
 1                     5.18468  -1.8635   -2.36542 
 6                    -9.01514  -3.30394   0.69587 
 1                    -2.71793   4.41289  -2.61112 
 1                    -5.14878   3.07404   0.66375 
 1                    -7.50632  -4.68324   1.0592 
 1                    -4.48742   5.9872   -3.28506 
 1                    -6.91396   4.68199   0.00889 
 6                    -1.32618   5.37251   0.08809 
 1                     0.79802   3.63936  -1.91123 
 1                     1.8356    5.8805   -2.08642 
 6                    -0.78384   4.28352  -0.60783 
 6                    -10.1218  -4.27579   0.95126 
 1                    -1.15485   7.45855   0.56074 
 1                    -2.2051    5.23718   0.70624 
 16                   -1.1866   -1.80189   0.44584 
 7                    -3.24773   1.42571  -0.27255 
 7                    -0.48364   1.94672  -0.28825 
 7                     5.51946  -1.07453   0.17552 
 6                     0.36861   4.48081  -1.38134 
 6                    -3.80555   3.6432   -0.91421 
 6                    -3.62976   4.4729   -2.02988 
 6                    -5.00493   3.72102  -0.19291 
 6                    -5.81324   5.44496  -1.67749 
 6                    -5.99673   4.62306  -0.56583 
 1                     8.44632  -6.64764  -3.81905 
 1                     6.77423  -6.03469  -3.78972 
 1                     8.11372  -4.96544  -4.30007 
 1                     9.61696   3.76386   4.0978 
 1                     7.85226   3.52257   4.09503 
 1                     8.93938   2.19247   4.59156 
 8                     8.06422  -5.42621  -2.26111 
 8                     8.95974   2.64913   2.55153 
 1                    -3.14326  -3.50806   0.95086 
 8                    -11.24029  -3.92595   1.23794 
 8                    -9.83441  -5.59508   0.86736 
 6                    -9.47804  -1.97966   0.45083 
 7                    -9.8703   -0.91128   0.24538 
 1                    -8.98977  -5.75154   0.42687 
 
 Stoichiometry    C48H34N4O4S
 Framework group  C1[X(C48H34N4O4S)]
 Deg. of freedom   267
 Full point group                 C1      NOp   1
 Largest Abelian subgroup         C1      NOp   1
 Largest concise Abelian subgroup C1      NOp   1
                         Standard orientation:                         
 ---------------------------------------------------------------------
 Center     Atomic      Atomic             Coordinates (Angstroms)
 Number     Number       Type             X           Y           Z
 ---------------------------------------------------------------------
      1          6           0       -4.631031    5.361136   -2.411965
      2          6           0        0.952221    5.740697   -1.473753
      3          6           0       -0.146433   -0.445370    0.147030
      4          6           0       -0.947089    0.692174   -0.068337
      5          6           0       -2.359020    0.429567   -0.016011
      6          6           0       -2.679179   -0.908980    0.260187
      7          1           0       -5.288656   -4.617098    1.156981
      8          1           0        0.860507    7.799804   -0.847875
      9          6           0       -2.784972    2.629555   -0.531279
     10          6           0       -1.353809    2.914069   -0.481952
     11          6           0        7.824722   -5.776095   -3.623969
     12          6           0        8.820585    3.045063    3.915736
     13          6           0       -3.958167   -1.574327    0.389483
     14          6           0       -5.176556   -0.890741    0.151509
     15          1           0       -7.291372   -0.958003    0.072563
     16          6           0       -4.043530   -2.938276    0.753936
     17          1           0       -5.141231    0.149716   -0.135119
     18          6           0        1.297547   -0.598599    0.150351
     19          6           0        2.162457    0.505724    0.306889
     20          6           0        3.536785    0.351629    0.317724
     21          6           0        4.132468   -0.918346    0.171651
     22          6           0        3.273532   -2.027315    0.018133
     23          6           0        1.901525   -1.865332    0.006245
     24          1           0        1.739779    1.494807    0.407860
     25          1           0        4.164243    1.225272    0.435011
     26          6           0       -5.262430   -3.570822    0.872697
     27          1           0        3.691571   -3.018690   -0.094374
     28          1           0        1.284605   -2.747058   -0.127164
     29          6           0        0.404280    6.818861   -0.779223
     30          6           0       -0.731085    6.628444    0.007254
     31          6           0       -6.479154   -2.889616    0.638832
     32          1           0       -6.588008    6.143747   -1.971527
     33          6           0       -6.394931   -1.527437    0.271705
     34          6           0        6.371743   -0.113043    0.805884
     35          6           0        7.424824    0.474129    0.091519
     36          6           0        8.271763    1.383955    0.703834
     37          6           0        8.078764    1.742664    2.045104
     38          6           0        7.027087    1.165339    2.763738
     39          6           0        6.191132    0.237049    2.144271
     40          1           0        7.579146    0.209308   -0.947690
     41          1           0        9.088486    1.839686    0.156997
     42          6           0       -7.695069   -3.647394    0.790412
     43          1           0        6.857048    1.415032    3.802069
     44          1           0        5.387599   -0.216572    2.712302
     45          6           0        6.141089   -2.190242   -0.470033
     46          6           0        7.052582   -2.993299    0.228903
     47          6           0        7.680930   -4.057226   -0.398404
     48          6           0        7.402670   -4.356297   -1.739342
     49          6           0        6.491011   -3.562645   -2.442798
     50          6           0        5.877831   -2.482852   -1.808608
     51          1           0        7.269510   -2.776009    1.267963
     52          1           0        8.387370   -4.680452    0.136639
     53          1           0        6.261671   -3.761504   -3.480711
     54          1           0        5.184685   -1.863495   -2.365415
     55          6           0       -9.015144   -3.303944    0.695865
     56          1           0       -2.717927    4.412890   -2.611118
     57          1           0       -5.148781    3.074038    0.663746
     58          1           0       -7.506319   -4.683242    1.059202
     59          1           0       -4.487420    5.987204   -3.285059
     60          1           0       -6.913955    4.681992    0.008889
     61          6           0       -1.326181    5.372509    0.088090
     62          1           0        0.798017    3.639362   -1.911234
     63          1           0        1.835597    5.880502   -2.086415
     64          6           0       -0.783844    4.283523   -0.607833
     65          6           0      -10.121801   -4.275787    0.951255
     66          1           0       -1.154853    7.458551    0.560742
     67          1           0       -2.205096    5.237183    0.706238
     68         16           0       -1.186602   -1.801887    0.445836
     69          7           0       -3.247730    1.425711   -0.272546
     70          7           0       -0.483638    1.946718   -0.288249
     71          7           0        5.519459   -1.074533    0.175518
     72          6           0        0.368612    4.480809   -1.381344
     73          6           0       -3.805550    3.643200   -0.914214
     74          6           0       -3.629759    4.472905   -2.029876
     75          6           0       -5.004933    3.721022   -0.192913
     76          6           0       -5.813238    5.444955   -1.677486
     77          6           0       -5.996733    4.623060   -0.565829
     78          1           0        8.446316   -6.647642   -3.819049
     79          1           0        6.774233   -6.034687   -3.789716
     80          1           0        8.113716   -4.965439   -4.300067
     81          1           0        9.616962    3.763855    4.097804
     82          1           0        7.852263    3.522568    4.095030
     83          1           0        8.939376    2.192469    4.591564
     84          8           0        8.064222   -5.426213   -2.261112
     85          8           0        8.959743    2.649126    2.551526
     86          1           0       -3.143257   -3.508059    0.950856
     87          8           0      -11.240290   -3.925952    1.237937
     88          8           0       -9.834414   -5.595084    0.867360
     89          6           0       -9.478038   -1.979660    0.450833
     90          7           0       -9.870299   -0.911276    0.245382
     91          1           0       -8.989770   -5.751540    0.426869
 ---------------------------------------------------------------------
 Rotational constants (GHZ):           0.0501157           0.0180140           0.0143061
 Standard basis: 6-311G(d,p) (5D, 7F)
 There are  1295 symmetry adapted cartesian basis functions of A   symmetry.
 There are  1238 symmetry adapted basis functions of A   symmetry.
  1238 basis functions,  2110 primitive gaussians,  1295 cartesian basis functions
   199 alpha electrons      199 beta electrons
       nuclear repulsion energy      6899.3183239166 Hartrees.
 NAtoms=   91 NActive=   91 NUniq=   91 SFac= 1.00D+00 NAtFMM=   60 NAOKFM=T Big=T
 Integral buffers will be    131072 words long.
 Raffenetti 1 integral format.
 Two-electron integral symmetry is turned on.
 One-electron integrals computed using PRISM.
 NBasis=  1238 RedAO= T EigKep=  1.19D-04  NBF=  1238
 NBsUse=  1238 1.00D-06 EigRej= -1.00D+00 NBFU=  1238
 ExpMin= 7.71D-02 ExpMax= 9.34D+04 ExpMxC= 3.17D+03 IAcc=3 IRadAn=         5 AccDes= 0.00D+00
 Harris functional with IExCor=20419 and IRadAn=       5 diagonalized for initial guess.
 HarFok:  IExCor=20419 AccDes= 0.00D+00 IRadAn=         5 IDoV= 1 UseB2=F ITyADJ=14
 ICtDFT=  3500011 ScaDFX=  1.000000  1.000000  1.000000  1.000000
 FoFCou: FMM=F IPFlag=           0 FMFlag=      100000 FMFlg1=        2001
         NFxFlg=           0 DoJE=T BraDBF=F KetDBF=T FulRan=T
         wScrn=  0.000000 ICntrl=       500 IOpCl=  0 I1Cent=   200000004 NGrid=           0
         NMat0=    1 NMatS0=      1 NMatT0=    0 NMatD0=    1 NMtDS0=    0 NMtDT0=    0
 Petite list used in FoFCou.
 Requested convergence on RMS density matrix=1.00D-08 within 128 cycles.
 Requested convergence on MAX density matrix=1.00D-06.
 Requested convergence on             energy=1.00D-06.
 No special actions if energy rises.
 Integral accuracy reduced to 1.0D-05 until final iterations.
 Initial convergence to 1.0D-05 achieved.  Increase integral accuracy.
 SCF Done:  E(RCAM-B3LYP) =  -2766.96837589     A.U. after   17 cycles
            NFock= 17  Conv=0.56D-08     -V/T= 2.0032
 DoSCS=F DFT=T ScalE2(SS,OS)=  1.000000  1.000000
 ExpMin= 7.71D-02 ExpMax= 9.34D+04 ExpMxC= 3.17D+03 IAcc=3 IRadAn=         5 AccDes= 0.00D+00
 HarFok:  IExCor=  205 AccDes= 0.00D+00 IRadAn=         5 IDoV=-2 UseB2=F ITyADJ=14
 ICtDFT= 12500011 ScaDFX=  1.000000  1.000000  1.000000  1.000000
 GSVD:  LWork=       -4209 too small for GESVD, short by       19520 words or       19520 for optimal perf.
 Range of M.O.s used for correlation:    62  1238
 NBasis=  1238 NAE=   199 NBE=   199 NFC=    61 NFV=     0
 NROrb=   1177 NOA=   138 NOB=   138 NVA=  1039 NVB=  1039

 **** Warning!!: The largest alpha MO coefficient is  0.11540457D+02

 Orbital symmetries:
       Occupied  (A) (A) (A) (A) (A) (A) (A) (A) (A) (A) (A) (A)
                 (A) (A) (A) (A) (A) (A) (A) (A) (A) (A) (A) (A)
                 (A) (A) (A) (A) (A) (A) (A) (A) (A) (A) (A) (A)
                 (A) (A) (A) (A) (A) (A) (A) (A) (A) (A) (A) (A)
                 (A) (A) (A) (A) (A) (A) (A) (A) (A) (A) (A) (A)
                 (A) (A) (A) (A) (A) (A) (A) (A) (A) (A) (A) (A)
                 (A) (A) (A) (A) (A) (A) (A) (A) (A) (A) (A) (A)
                 (A) (A) (A) (A) (A) (A) (A) (A) (A) (A) (A) (A)
                 (A) (A) (A) (A) (A) (A) (A) (A) (A) (A) (A) (A)
                 (A) (A) (A) (A) (A) (A) (A) (A) (A) (A) (A) (A)
                 (A) (A) (A) (A) (A) (A) (A) (A) (A) (A) (A) (A)
                 (A) (A) (A) (A) (A) (A) (A) (A) (A) (A) (A) (A)
                 (A) (A) (A) (A) (A) (A) (A) (A) (A) (A) (A) (A)
                 (A) (A) (A) (A) (A) (A) (A) (A) (A) (A) (A) (A)
                 (A) (A) (A) (A) (A) (A) (A) (A) (A) (A) (A) (A)
                 (A) (A) (A) (A) (A) (A) (A) (A) (A) (A) (A) (A)
                 (A) (A) (A) (A) (A) (A) (A)
       Virtual   (A) (A) (A) (A) (A) (A) (A) (A) (A) (A) (A) (A)
                 (A) (A) (A) (A) (A) (A) (A) (A) (A) (A) (A) (A)
                 (A) (A) (A) (A) (A) (A) (A) (A) (A) (A) (A) (A)
                 (A) (A) (A) (A) (A) (A) (A) (A) (A) (A) (A) (A)
                 (A) (A) (A) (A) (A) (A) (A) (A) (A) (A) (A) (A)
                 (A) (A) (A) (A) (A) (A) (A) (A) (A) (A) (A) (A)
                 (A) (A) (A) (A) (A) (A) (A) (A) (A) (A) (A) (A)
                 (A) (A) (A) (A) (A) (A) (A) (A) (A) (A) (A) (A)
                 (A) (A) (A) (A) (A) (A) (A) (A) (A) (A) (A) (A)
                 (A) (A) (A) (A) (A) (A) (A) (A) (A) (A) (A) (A)
                 (A) (A) (A) (A) (A) (A) (A) (A) (A) (A) (A) (A)
                 (A) (A) (A) (A) (A) (A) (A) (A) (A) (A) (A) (A)
                 (A) (A) (A) (A) (A) (A) (A) (A) (A) (A) (A) (A)
                 (A) (A) (A) (A) (A) (A) (A) (A) (A) (A) (A) (A)
                 (A) (A) (A) (A) (A) (A) (A) (A) (A) (A) (A) (A)
                 (A) (A) (A) (A) (A) (A) (A) (A) (A) (A) (A) (A)
                 (A) (A) (A) (A) (A) (A) (A) (A) (A) (A) (A) (A)
                 (A) (A) (A) (A) (A) (A) (A) (A) (A) (A) (A) (A)
                 (A) (A) (A) (A) (A) (A) (A) (A) (A) (A) (A) (A)
                 (A) (A) (A) (A) (A) (A) (A) (A) (A) (A) (A) (A)
                 (A) (A) (A) (A) (A) (A) (A) (A) (A) (A) (A) (A)
                 (A) (A) (A) (A) (A) (A) (A) (A) (A) (A) (A) (A)
                 (A) (A) (A) (A) (A) (A) (A) (A) (A) (A) (A) (A)
                 (A) (A) (A) (A) (A) (A) (A) (A) (A) (A) (A) (A)
                 (A) (A) (A) (A) (A) (A) (A) (A) (A) (A) (A) (A)
                 (A) (A) (A) (A) (A) (A) (A) (A) (A) (A) (A) (A)
                 (A) (A) (A) (A) (A) (A) (A) (A) (A) (A) (A) (A)
                 (A) (A) (A) (A) (A) (A) (A) (A) (A) (A) (A) (A)
                 (A) (A) (A) (A) (A) (A) (A) (A) (A) (A) (A) (A)
                 (A) (A) (A) (A) (A) (A) (A) (A) (A) (A) (A) (A)
                 (A) (A) (A) (A) (A) (A) (A) (A) (A) (A) (A) (A)
                 (A) (A) (A) (A) (A) (A) (A) (A) (A) (A) (A) (A)
                 (A) (A) (A) (A) (A) (A) (A) (A) (A) (A) (A) (A)
                 (A) (A) (A) (A) (A) (A) (A) (A) (A) (A) (A) (A)
                 (A) (A) (A) (A) (A) (A) (A) (A) (A) (A) (A) (A)
                 (A) (A) (A) (A) (A) (A) (A) (A) (A) (A) (A) (A)
                 (A) (A) (A) (A) (A) (A) (A) (A) (A) (A) (A) (A)
                 (A) (A) (A) (A) (A) (A) (A) (A) (A) (A) (A) (A)
                 (A) (A) (A) (A) (A) (A) (A) (A) (A) (A) (A) (A)
                 (A) (A) (A) (A) (A) (A) (A) (A) (A) (A) (A) (A)
                 (A) (A) (A) (A) (A) (A) (A) (A) (A) (A) (A) (A)
                 (A) (A) (A) (A) (A) (A) (A) (A) (A) (A) (A) (A)
                 (A) (A) (A) (A) (A) (A) (A) (A) (A) (A) (A) (A)
                 (A) (A) (A) (A) (A) (A) (A) (A) (A) (A) (A) (A)
                 (A) (A) (A) (A) (A) (A) (A) (A) (A) (A) (A) (A)
                 (A) (A) (A) (A) (A) (A) (A) (A) (A) (A) (A) (A)
                 (A) (A) (A) (A) (A) (A) (A) (A) (A) (A) (A) (A)
                 (A) (A) (A) (A) (A) (A) (A) (A) (A) (A) (A) (A)
                 (A) (A) (A) (A) (A) (A) (A) (A) (A) (A) (A) (A)
                 (A) (A) (A) (A) (A) (A) (A) (A) (A) (A) (A) (A)
                 (A) (A) (A) (A) (A) (A) (A) (A) (A) (A) (A) (A)
                 (A) (A) (A) (A) (A) (A) (A) (A) (A) (A) (A) (A)
                 (A) (A) (A) (A) (A) (A) (A) (A) (A) (A) (A) (A)
                 (A) (A) (A) (A) (A) (A) (A) (A) (A) (A) (A) (A)
                 (A) (A) (A) (A) (A) (A) (A) (A) (A) (A) (A) (A)
                 (A) (A) (A) (A) (A) (A) (A) (A) (A) (A) (A) (A)
                 (A) (A) (A) (A) (A) (A) (A) (A) (A) (A) (A) (A)
                 (A) (A) (A) (A) (A) (A) (A) (A) (A) (A) (A) (A)
                 (A) (A) (A) (A) (A) (A) (A) (A) (A) (A) (A) (A)
                 (A) (A) (A) (A) (A) (A) (A) (A) (A) (A) (A) (A)
                 (A) (A) (A) (A) (A) (A) (A) (A) (A) (A) (A) (A)
                 (A) (A) (A) (A) (A) (A) (A) (A) (A) (A) (A) (A)
                 (A) (A) (A) (A) (A) (A) (A) (A) (A) (A) (A) (A)
                 (A) (A) (A) (A) (A) (A) (A) (A) (A) (A) (A) (A)
                 (A) (A) (A) (A) (A) (A) (A) (A) (A) (A) (A) (A)
                 (A) (A) (A) (A) (A) (A) (A) (A) (A) (A) (A) (A)
                 (A) (A) (A) (A) (A) (A) (A) (A) (A) (A) (A) (A)
                 (A) (A) (A) (A) (A) (A) (A) (A) (A) (A) (A) (A)
                 (A) (A) (A) (A) (A) (A) (A) (A) (A) (A) (A) (A)
                 (A) (A) (A) (A) (A) (A) (A) (A) (A) (A) (A) (A)
                 (A) (A) (A) (A) (A) (A) (A) (A) (A) (A) (A) (A)
                 (A) (A) (A) (A) (A) (A) (A) (A) (A) (A) (A) (A)
                 (A) (A) (A) (A) (A) (A) (A) (A) (A) (A) (A) (A)
                 (A) (A) (A) (A) (A) (A) (A) (A) (A) (A) (A) (A)
                 (A) (A) (A) (A) (A) (A) (A) (A) (A) (A) (A) (A)
                 (A) (A) (A) (A) (A) (A) (A) (A) (A) (A) (A) (A)
                 (A) (A) (A) (A) (A) (A) (A) (A) (A) (A) (A) (A)
                 (A) (A) (A) (A) (A) (A) (A) (A) (A) (A) (A) (A)
                 (A) (A) (A) (A) (A) (A) (A) (A) (A) (A) (A) (A)
                 (A) (A) (A) (A) (A) (A) (A) (A) (A) (A) (A) (A)
                 (A) (A) (A) (A) (A) (A) (A) (A) (A) (A) (A) (A)
                 (A) (A) (A) (A) (A) (A) (A) (A) (A) (A) (A) (A)
                 (A) (A) (A) (A) (A) (A) (A) (A) (A) (A) (A) (A)
                 (A) (A) (A) (A) (A) (A) (A) (A) (A) (A) (A) (A)
                 (A) (A) (A) (A) (A) (A) (A) (A) (A) (A) (A) (A)
                 (A) (A) (A) (A) (A) (A) (A) (A) (A) (A) (A) (A)
                 (A) (A) (A) (A) (A) (A) (A)
    40 initial guesses have been made.
 Convergence on wavefunction:    0.001000000000000
 Iteration     1 Dimension    40 NMult     0 NNew     40
 CISAX will form    40 AO SS matrices at one time.
 New state      4 was old state     14
 New state      5 was old state      4
 New state      6 was old state      7
 New state      7 was old state     13
 New state      8 was old state      5
 New state      9 was old state      8
 New state     10 was old state      6
 Iteration     2 Dimension    60 NMult    40 NNew     20
 Iteration     3 Dimension    80 NMult    60 NNew     20
 Iteration     4 Dimension   100 NMult    80 NNew     20
 Iteration     5 Dimension   120 NMult   100 NNew     20
 New state      9 was old state     10
 New state     10 was old state      9
 Iteration     6 Dimension   136 NMult   120 NNew     16
 Iteration     7 Dimension   144 NMult   136 NNew      8
 Iteration     8 Dimension   150 NMult   144 NNew      6
 Iteration     9 Dimension   156 NMult   150 NNew      6
 Iteration    10 Dimension   162 NMult   156 NNew      6
 Iteration    11 Dimension   166 NMult   162 NNew      4
 ***********************************************************************
 Excited states from <AA,BB:AA,BB> singles matrix:
 ***********************************************************************
 
 Ground to excited state transition densities written to RWF  633
 Ground to excited state transition electric dipole moments (Au):
       state          X           Y           Z        Dip. S.      Osc.
         1         4.1248      0.4127     -0.1184     17.1983      0.9475
         2         2.1752      1.5991     -0.3263      7.3950      0.5853
         3        -0.2014      1.4624     -0.2495      2.2414      0.1827
         4        -0.2613      0.6234     -0.2437      0.5163      0.0438
         5         0.1611     -1.2997      0.3122      1.8127      0.1652
         6        -2.1736      1.1033     -0.0352      5.9432      0.5905
         7         0.6827     -0.3054      0.5403      0.8513      0.0854
         8         0.8644      0.5287     -0.1250      1.0423      0.1104
         9        -0.7971     -0.1808     -0.0029      0.6681      0.0717
        10        -0.1028      0.0515      0.5681      0.3360      0.0369
 Ground to excited state transition velocity dipole moments (Au):
       state          X           Y           Z        Dip. S.      Osc.
         1        -0.3434     -0.0343      0.0101      0.1192      0.9618
         2        -0.2426     -0.1858      0.0403      0.0950      0.5335
         3         0.0210     -0.1797      0.0257      0.0334      0.1822
         4         0.0287     -0.0770      0.0399      0.0083      0.0437
         5        -0.0215      0.1674     -0.0402      0.0301      0.1467
         6         0.3179     -0.1598      0.0014      0.1266      0.5663
         7        -0.1012      0.0524     -0.0891      0.0209      0.0927
         8        -0.1341     -0.0839      0.0203      0.0254      0.1068
         9         0.1255      0.0302     -0.0010      0.0167      0.0690
        10         0.0185     -0.0048     -0.1006      0.0105      0.0424
 Ground to excited state transition magnetic dipole moments (Au):
       state          X           Y           Z
         1        -0.0023     -0.0437      0.0710
         2         0.0709     -0.1624     -0.5330
         3        -0.1166     -0.0120      0.3182
         4         0.1554      0.1219      0.2980
         5        -0.0778      0.0615     -0.3620
         6         0.0337      0.7040      0.6756
         7         0.2779      1.5422     -0.8838
         8         0.0842     -0.1545     -0.4766
         9        -0.0553      0.2140      0.8258
        10         0.2552      1.3293     -0.9823
 Ground to excited state transition velocity quadrupole moments (Au):
       state          XX          YY          ZZ          XY          XZ          YZ
         1         1.3450      0.2803     -0.1202      1.4654     -0.3180     -0.3069
         2         5.0337     -0.4057     -0.0570      2.2292     -0.4787      0.0096
         3         4.1868     -0.4872      0.1267      1.2890     -0.2334      0.2875
         4         1.5768     -0.2254      0.0103      0.5336     -0.2058      0.2731
         5         1.3306      1.4650      0.1455     -0.9126      0.1773     -0.2302
         6         1.7641     -1.0094      0.2189     -0.2619     -0.3037      0.7339
         7        -1.0767      0.2186     -0.1350     -0.0993     -1.1206      0.0021
         8         2.4102     -0.2033     -0.1111      1.2107     -0.3006     -0.1052
         9        -4.3736      0.3742      0.0231     -0.5812      0.1156     -0.0682
        10         1.2453      0.9669      0.0493     -0.6431     -1.3406      0.2229
 <0|del|b> * <b|rxdel|0> + <0|del|b> * <b|delr+rdel|0>
 Rotatory Strengths (R) in cgs (10**-40 erg-esu-cm/Gauss)
       state          XX          YY          ZZ    R(velocity)    E-M Angle
         1        25.9173    394.3151   -394.5781      8.5514       84.02
         2        28.3611   -389.3606    310.4213    -16.8594       92.81
         3         4.4383    -61.8214    103.0651     15.2274       82.68
         4        22.1880      8.0346      8.5419     12.9215       77.66
         5        82.3978    -40.1233     94.8813     45.7186       65.97
         6      -380.6728    582.0503   -679.8750   -159.4992      106.88
         7       533.5486     97.7126    -13.7020    205.8531       59.67
         8         5.8630    -69.9423     28.4665    -11.8709       95.66
         9         5.9933    -37.1377     25.4044     -1.9133       90.68
        10       322.9566     92.1551      1.3996    138.8371       55.46
 1/2[<0|r|b>*<b|rxdel|0> + (<0|rxdel|b>*<b|r|0>)*]
 Rotatory Strengths (R) in cgs (10**-40 erg-esu-cm/Gauss)
       state          XX          YY          ZZ     R(length)
         1         6.6869     12.7381      5.9465      8.4572
         2      -109.0787    183.6637   -123.0030    -16.1393
         3       -16.6044     12.4293     56.1620     17.3290
         4        28.7245    -53.7308     51.3476      8.7804
         5         8.8631     56.5081     79.9202     48.4305
         6        51.8630   -549.3278     16.8247   -160.2134
         7      -134.1758    333.0080    337.7139    178.8487
         8       -51.4607     57.7713    -42.1226    -11.9373
         9       -31.1907     27.3692      1.6719     -0.7165
        10        18.5491    -48.3687    394.6444    121.6083
  1/2[<0|del|b>*<b|r|0> + (<0|r|b>*<b|del|0>)*] (Au)
       state          X           Y           Z        Dip. S.   Osc.(frdel)
         1        -1.4166     -0.0141     -0.0012      1.4319      0.9546
         2        -0.5278     -0.2971     -0.0131      0.8380      0.5586
         3        -0.0042     -0.2629     -0.0064      0.2735      0.1823
         4        -0.0075     -0.0480     -0.0097      0.0652      0.0435
         5        -0.0035     -0.2175     -0.0125      0.2335      0.1557
         6        -0.6910     -0.1763     -0.0000      0.8673      0.5782
         7        -0.0691     -0.0160     -0.0481      0.1332      0.0888
         8        -0.1159     -0.0444     -0.0025      0.1628      0.1085
         9        -0.1000     -0.0055      0.0000      0.1055      0.0703
        10        -0.0019     -0.0002     -0.0572      0.0593      0.0395

 Excitation energies and oscillator strengths:
 
 Excited State   1:      Singlet-A      2.2487 eV  551.35 nm  f=0.9475  <S**2>=0.000
     198 -> 200        0.20922
     199 -> 200        0.64075
     199 -> 201       -0.17326
 This state for optimization and/or second-order correction.
 Total Energy, E(TD-HF/TD-DFT) =  -2766.88573692    
 Copying the excited state density for this state as the 1-particle RhoCI density.
 
 Excited State   2:      Singlet-A      3.2304 eV  383.80 nm  f=0.5853  <S**2>=0.000
     198 -> 201        0.28942
     199 -> 200        0.15033
     199 -> 201        0.58345
     199 -> 203        0.11676
 
 Excited State   3:      Singlet-A      3.3266 eV  372.70 nm  f=0.1827  <S**2>=0.000
     191 -> 200       -0.13730
     193 -> 200        0.14215
     193 -> 201       -0.11015
     195 -> 200        0.13641
     197 -> 200       -0.16999
     198 -> 200        0.54043
     198 -> 201       -0.10953
     199 -> 200       -0.16468
 
 Excited State   4:      Singlet-A      3.4655 eV  357.77 nm  f=0.0438  <S**2>=0.000
     186 -> 200        0.13061
     186 -> 201       -0.10313
     189 -> 200       -0.11464
     191 -> 200        0.30860
     191 -> 201       -0.20611
     192 -> 200        0.23662
     192 -> 201       -0.15369
     193 -> 200       -0.27405
     193 -> 201        0.16082
     197 -> 200       -0.12219
     198 -> 200        0.23854
 
 Excited State   5:      Singlet-A      3.7194 eV  333.34 nm  f=0.1652  <S**2>=0.000
     185 -> 200        0.10458
     197 -> 200        0.56659
     197 -> 201       -0.24061
     198 -> 200        0.17830
     199 -> 202        0.15656
 
 Excited State   6:      Singlet-A      4.0554 eV  305.72 nm  f=0.5905  <S**2>=0.000
     198 -> 200       -0.13219
     198 -> 202        0.10525
     199 -> 202        0.48402
     199 -> 203       -0.26853
     199 -> 204        0.24895
     199 -> 210        0.11889
 
 Excited State   7:      Singlet-A      4.0938 eV  302.85 nm  f=0.0854  <S**2>=0.000
     192 -> 200       -0.10545
     198 -> 204       -0.20327
     199 -> 202       -0.10919
     199 -> 203        0.29700
     199 -> 204        0.51330
     199 -> 211       -0.13526
 
 Excited State   8:      Singlet-A      4.3217 eV  286.89 nm  f=0.1104  <S**2>=0.000
     187 -> 200        0.41825
     187 -> 201        0.16126
     195 -> 200        0.25894
     195 -> 201        0.10023
     198 -> 201        0.24938
     198 -> 206       -0.12393
     199 -> 201       -0.18171
     199 -> 206       -0.15542
 
 Excited State   9:      Singlet-A      4.3789 eV  283.14 nm  f=0.0717  <S**2>=0.000
     186 -> 200        0.10030
     187 -> 200        0.34136
     187 -> 201        0.13948
     189 -> 200        0.10864
     192 -> 200        0.10605
     193 -> 200        0.13523
     195 -> 200       -0.25103
     198 -> 201       -0.29355
     198 -> 206       -0.13273
     199 -> 201        0.18886
     199 -> 206       -0.15975
 
 Excited State  10:      Singlet-A      4.4865 eV  276.35 nm  f=0.0369  <S**2>=0.000
     188 -> 200       -0.14412
     191 -> 200       -0.19778
     192 -> 200        0.30649
     192 -> 201       -0.10755
     196 -> 200        0.11530
     198 -> 201        0.16002
     198 -> 204       -0.16395
     199 -> 203       -0.14986
     199 -> 204        0.21699
     199 -> 208       -0.12581
     199 -> 210       -0.13825
     199 -> 211        0.23089
 SavETr:  write IOETrn=   770 NScale= 10 NData=  16 NLR=1 NState=   10 LETran=     190.

 **********************************************************************

            Population analysis using the SCF Density.

 **********************************************************************

 Orbital symmetries:
       Occupied  (A) (A) (A) (A) (A) (A) (A) (A) (A) (A) (A) (A)
                 (A) (A) (A) (A) (A) (A) (A) (A) (A) (A) (A) (A)
                 (A) (A) (A) (A) (A) (A) (A) (A) (A) (A) (A) (A)
                 (A) (A) (A) (A) (A) (A) (A) (A) (A) (A) (A) (A)
                 (A) (A) (A) (A) (A) (A) (A) (A) (A) (A) (A) (A)
                 (A) (A) (A) (A) (A) (A) (A) (A) (A) (A) (A) (A)
                 (A) (A) (A) (A) (A) (A) (A) (A) (A) (A) (A) (A)
                 (A) (A) (A) (A) (A) (A) (A) (A) (A) (A) (A) (A)
                 (A) (A) (A) (A) (A) (A) (A) (A) (A) (A) (A) (A)
                 (A) (A) (A) (A) (A) (A) (A) (A) (A) (A) (A) (A)
                 (A) (A) (A) (A) (A) (A) (A) (A) (A) (A) (A) (A)
                 (A) (A) (A) (A) (A) (A) (A) (A) (A) (A) (A) (A)
                 (A) (A) (A) (A) (A) (A) (A) (A) (A) (A) (A) (A)
                 (A) (A) (A) (A) (A) (A) (A) (A) (A) (A) (A) (A)
                 (A) (A) (A) (A) (A) (A) (A) (A) (A) (A) (A) (A)
                 (A) (A) (A) (A) (A) (A) (A) (A) (A) (A) (A) (A)
                 (A) (A) (A) (A) (A) (A) (A)
       Virtual   (A) (A) (A) (A) (A) (A) (A) (A) (A) (A) (A) (A)
                 (A) (A) (A) (A) (A) (A) (A) (A) (A) (A) (A) (A)
                 (A) (A) (A) (A) (A) (A) (A) (A) (A) (A) (A) (A)
                 (A) (A) (A) (A) (A) (A) (A) (A) (A) (A) (A) (A)
                 (A) (A) (A) (A) (A) (A) (A) (A) (A) (A) (A) (A)
                 (A) (A) (A) (A) (A) (A) (A) (A) (A) (A) (A) (A)
                 (A) (A) (A) (A) (A) (A) (A) (A) (A) (A) (A) (A)
                 (A) (A) (A) (A) (A) (A) (A) (A) (A) (A) (A) (A)
                 (A) (A) (A) (A) (A) (A) (A) (A) (A) (A) (A) (A)
                 (A) (A) (A) (A) (A) (A) (A) (A) (A) (A) (A) (A)
                 (A) (A) (A) (A) (A) (A) (A) (A) (A) (A) (A) (A)
                 (A) (A) (A) (A) (A) (A) (A) (A) (A) (A) (A) (A)
                 (A) (A) (A) (A) (A) (A) (A) (A) (A) (A) (A) (A)
                 (A) (A) (A) (A) (A) (A) (A) (A) (A) (A) (A) (A)
                 (A) (A) (A) (A) (A) (A) (A) (A) (A) (A) (A) (A)
                 (A) (A) (A) (A) (A) (A) (A) (A) (A) (A) (A) (A)
                 (A) (A) (A) (A) (A) (A) (A) (A) (A) (A) (A) (A)
                 (A) (A) (A) (A) (A) (A) (A) (A) (A) (A) (A) (A)
                 (A) (A) (A) (A) (A) (A) (A) (A) (A) (A) (A) (A)
                 (A) (A) (A) (A) (A) (A) (A) (A) (A) (A) (A) (A)
                 (A) (A) (A) (A) (A) (A) (A) (A) (A) (A) (A) (A)
                 (A) (A) (A) (A) (A) (A) (A) (A) (A) (A) (A) (A)
                 (A) (A) (A) (A) (A) (A) (A) (A) (A) (A) (A) (A)
                 (A) (A) (A) (A) (A) (A) (A) (A) (A) (A) (A) (A)
                 (A) (A) (A) (A) (A) (A) (A) (A) (A) (A) (A) (A)
                 (A) (A) (A) (A) (A) (A) (A) (A) (A) (A) (A) (A)
                 (A) (A) (A) (A) (A) (A) (A) (A) (A) (A) (A) (A)
                 (A) (A) (A) (A) (A) (A) (A) (A) (A) (A) (A) (A)
                 (A) (A) (A) (A) (A) (A) (A) (A) (A) (A) (A) (A)
                 (A) (A) (A) (A) (A) (A) (A) (A) (A) (A) (A) (A)
                 (A) (A) (A) (A) (A) (A) (A) (A) (A) (A) (A) (A)
                 (A) (A) (A) (A) (A) (A) (A) (A) (A) (A) (A) (A)
                 (A) (A) (A) (A) (A) (A) (A) (A) (A) (A) (A) (A)
                 (A) (A) (A) (A) (A) (A) (A) (A) (A) (A) (A) (A)
                 (A) (A) (A) (A) (A) (A) (A) (A) (A) (A) (A) (A)
                 (A) (A) (A) (A) (A) (A) (A) (A) (A) (A) (A) (A)
                 (A) (A) (A) (A) (A) (A) (A) (A) (A) (A) (A) (A)
                 (A) (A) (A) (A) (A) (A) (A) (A) (A) (A) (A) (A)
                 (A) (A) (A) (A) (A) (A) (A) (A) (A) (A) (A) (A)
                 (A) (A) (A) (A) (A) (A) (A) (A) (A) (A) (A) (A)
                 (A) (A) (A) (A) (A) (A) (A) (A) (A) (A) (A) (A)
                 (A) (A) (A) (A) (A) (A) (A) (A) (A) (A) (A) (A)
                 (A) (A) (A) (A) (A) (A) (A) (A) (A) (A) (A) (A)
                 (A) (A) (A) (A) (A) (A) (A) (A) (A) (A) (A) (A)
                 (A) (A) (A) (A) (A) (A) (A) (A) (A) (A) (A) (A)
                 (A) (A) (A) (A) (A) (A) (A) (A) (A) (A) (A) (A)
                 (A) (A) (A) (A) (A) (A) (A) (A) (A) (A) (A) (A)
                 (A) (A) (A) (A) (A) (A) (A) (A) (A) (A) (A) (A)
                 (A) (A) (A) (A) (A) (A) (A) (A) (A) (A) (A) (A)
                 (A) (A) (A) (A) (A) (A) (A) (A) (A) (A) (A) (A)
                 (A) (A) (A) (A) (A) (A) (A) (A) (A) (A) (A) (A)
                 (A) (A) (A) (A) (A) (A) (A) (A) (A) (A) (A) (A)
                 (A) (A) (A) (A) (A) (A) (A) (A) (A) (A) (A) (A)
                 (A) (A) (A) (A) (A) (A) (A) (A) (A) (A) (A) (A)
                 (A) (A) (A) (A) (A) (A) (A) (A) (A) (A) (A) (A)
                 (A) (A) (A) (A) (A) (A) (A) (A) (A) (A) (A) (A)
                 (A) (A) (A) (A) (A) (A) (A) (A) (A) (A) (A) (A)
                 (A) (A) (A) (A) (A) (A) (A) (A) (A) (A) (A) (A)
                 (A) (A) (A) (A) (A) (A) (A) (A) (A) (A) (A) (A)
                 (A) (A) (A) (A) (A) (A) (A) (A) (A) (A) (A) (A)
                 (A) (A) (A) (A) (A) (A) (A) (A) (A) (A) (A) (A)
                 (A) (A) (A) (A) (A) (A) (A) (A) (A) (A) (A) (A)
                 (A) (A) (A) (A) (A) (A) (A) (A) (A) (A) (A) (A)
                 (A) (A) (A) (A) (A) (A) (A) (A) (A) (A) (A) (A)
                 (A) (A) (A) (A) (A) (A) (A) (A) (A) (A) (A) (A)
                 (A) (A) (A) (A) (A) (A) (A) (A) (A) (A) (A) (A)
                 (A) (A) (A) (A) (A) (A) (A) (A) (A) (A) (A) (A)
                 (A) (A) (A) (A) (A) (A) (A) (A) (A) (A) (A) (A)
                 (A) (A) (A) (A) (A) (A) (A) (A) (A) (A) (A) (A)
                 (A) (A) (A) (A) (A) (A) (A) (A) (A) (A) (A) (A)
                 (A) (A) (A) (A) (A) (A) (A) (A) (A) (A) (A) (A)
                 (A) (A) (A) (A) (A) (A) (A) (A) (A) (A) (A) (A)
                 (A) (A) (A) (A) (A) (A) (A) (A) (A) (A) (A) (A)
                 (A) (A) (A) (A) (A) (A) (A) (A) (A) (A) (A) (A)
                 (A) (A) (A) (A) (A) (A) (A) (A) (A) (A) (A) (A)
                 (A) (A) (A) (A) (A) (A) (A) (A) (A) (A) (A) (A)
                 (A) (A) (A) (A) (A) (A) (A) (A) (A) (A) (A) (A)
                 (A) (A) (A) (A) (A) (A) (A) (A) (A) (A) (A) (A)
                 (A) (A) (A) (A) (A) (A) (A) (A) (A) (A) (A) (A)
                 (A) (A) (A) (A) (A) (A) (A) (A) (A) (A) (A) (A)
                 (A) (A) (A) (A) (A) (A) (A) (A) (A) (A) (A) (A)
                 (A) (A) (A) (A) (A) (A) (A) (A) (A) (A) (A) (A)
                 (A) (A) (A) (A) (A) (A) (A) (A) (A) (A) (A) (A)
                 (A) (A) (A) (A) (A) (A) (A) (A) (A) (A) (A) (A)
                 (A) (A) (A) (A) (A) (A) (A) (A) (A) (A) (A) (A)
                 (A) (A) (A) (A) (A) (A) (A) (A) (A) (A) (A) (A)
                 (A) (A) (A) (A) (A) (A) (A)
 The electronic state is 1-A.
 Alpha  occ. eigenvalues --  -88.96987 -19.24403 -19.22883 -19.22816 -19.17765
 Alpha  occ. eigenvalues --  -14.42075 -14.40917 -14.40776 -14.38356 -10.39009
 Alpha  occ. eigenvalues --  -10.31982 -10.31772 -10.31708 -10.31627 -10.30954
 Alpha  occ. eigenvalues --  -10.30727 -10.30686 -10.30681 -10.30605 -10.30307
 Alpha  occ. eigenvalues --  -10.30254 -10.29816 -10.29648 -10.29110 -10.29093
 Alpha  occ. eigenvalues --  -10.29032 -10.28399 -10.28001 -10.27393 -10.26940
 Alpha  occ. eigenvalues --  -10.26863 -10.26738 -10.26628 -10.26487 -10.25986
 Alpha  occ. eigenvalues --  -10.25964 -10.25900 -10.25826 -10.25801 -10.25772
 Alpha  occ. eigenvalues --  -10.25749 -10.25710 -10.25701 -10.25662 -10.25635
 Alpha  occ. eigenvalues --  -10.25587 -10.25577 -10.25567 -10.25556 -10.25555
 Alpha  occ. eigenvalues --  -10.25447 -10.25372 -10.25279 -10.25238 -10.25216
 Alpha  occ. eigenvalues --  -10.24999 -10.24715  -8.05887  -6.02257  -6.01859
 Alpha  occ. eigenvalues --   -6.01606  -1.19350  -1.15619  -1.15556  -1.10622
 Alpha  occ. eigenvalues --   -1.08385  -1.05827  -1.01273  -0.99390  -0.99067
 Alpha  occ. eigenvalues --   -0.96897  -0.95554  -0.95212  -0.95058  -0.94840
 Alpha  occ. eigenvalues --   -0.93324  -0.92381  -0.88343  -0.88141  -0.85720
 Alpha  occ. eigenvalues --   -0.85644  -0.85028  -0.84864  -0.84581  -0.84190
 Alpha  occ. eigenvalues --   -0.83899  -0.83692  -0.83657  -0.82784  -0.81921
 Alpha  occ. eigenvalues --   -0.80365  -0.79223  -0.77386  -0.76294  -0.75506
 Alpha  occ. eigenvalues --   -0.73321  -0.71643  -0.71328  -0.70558  -0.70396
 Alpha  occ. eigenvalues --   -0.70353  -0.69849  -0.69498  -0.69003  -0.68549
 Alpha  occ. eigenvalues --   -0.68030  -0.67705  -0.66406  -0.65656  -0.65328
 Alpha  occ. eigenvalues --   -0.64460  -0.62704  -0.62408  -0.62253  -0.61241
 Alpha  occ. eigenvalues --   -0.60903  -0.60348  -0.59984  -0.59428  -0.57496
 Alpha  occ. eigenvalues --   -0.56955  -0.56756  -0.56459  -0.56154  -0.55125
 Alpha  occ. eigenvalues --   -0.55052  -0.54541  -0.54366  -0.54034  -0.53487
 Alpha  occ. eigenvalues --   -0.53459  -0.52952  -0.52887  -0.52671  -0.52520
 Alpha  occ. eigenvalues --   -0.51939  -0.51706  -0.51513  -0.51027  -0.50879
 Alpha  occ. eigenvalues --   -0.50670  -0.50498  -0.50251  -0.50138  -0.49947
 Alpha  occ. eigenvalues --   -0.49795  -0.49718  -0.49500  -0.49397  -0.48338
 Alpha  occ. eigenvalues --   -0.47848  -0.47739  -0.47078  -0.46729  -0.46545
 Alpha  occ. eigenvalues --   -0.46217  -0.46061  -0.46006  -0.45823  -0.45317
 Alpha  occ. eigenvalues --   -0.44639  -0.44477  -0.44167  -0.43931  -0.43779
 Alpha  occ. eigenvalues --   -0.43262  -0.43115  -0.42936  -0.42314  -0.42112
 Alpha  occ. eigenvalues --   -0.41879  -0.41648  -0.41536  -0.40775  -0.40565
 Alpha  occ. eigenvalues --   -0.40364  -0.40153  -0.40118  -0.39252  -0.39027
 Alpha  occ. eigenvalues --   -0.38599  -0.38487  -0.36994  -0.35055  -0.34098
 Alpha  occ. eigenvalues --   -0.33624  -0.33036  -0.32855  -0.32539  -0.32132
 Alpha  occ. eigenvalues --   -0.31999  -0.31730  -0.31589  -0.31425  -0.30364
 Alpha  occ. eigenvalues --   -0.29360  -0.28900  -0.26117  -0.22708
 Alpha virt. eigenvalues --   -0.07957  -0.04801  -0.00681   0.00596   0.01119
 Alpha virt. eigenvalues --    0.02224   0.02339   0.03060   0.03106   0.03435
 Alpha virt. eigenvalues --    0.03632   0.03856   0.04177   0.05102   0.05896
 Alpha virt. eigenvalues --    0.06571   0.07141   0.07490   0.07991   0.08054
 Alpha virt. eigenvalues --    0.08382   0.08581   0.08948   0.09153   0.09423
 Alpha virt. eigenvalues --    0.09608   0.10563   0.10869   0.10999   0.11066
 Alpha virt. eigenvalues --    0.11318   0.11773   0.12070   0.12517   0.12934
 Alpha virt. eigenvalues --    0.13652   0.13863   0.14007   0.14646   0.14665
 Alpha virt. eigenvalues --    0.14743   0.15057   0.15084   0.15455   0.15718
 Alpha virt. eigenvalues --    0.15805   0.16322   0.16770   0.17117   0.17382
 Alpha virt. eigenvalues --    0.17675   0.17882   0.18107   0.18181   0.18625
 Alpha virt. eigenvalues --    0.19001   0.19368   0.19731   0.19897   0.20321
 Alpha virt. eigenvalues --    0.20734   0.21045   0.21769   0.22030   0.22441
 Alpha virt. eigenvalues --    0.22660   0.23278   0.24734   0.25338   0.25786
 Alpha virt. eigenvalues --    0.26181   0.26273   0.26913   0.27266   0.27582
 Alpha virt. eigenvalues --    0.28179   0.28574   0.28719   0.29295   0.30279
 Alpha virt. eigenvalues --    0.30533   0.30836   0.31000   0.31232   0.31438
 Alpha virt. eigenvalues --    0.31774   0.31982   0.32028   0.32241   0.33023
 Alpha virt. eigenvalues --    0.33042   0.33389   0.33680   0.34271   0.34377
 Alpha virt. eigenvalues --    0.34769   0.34806   0.35215   0.35286   0.35637
 Alpha virt. eigenvalues --    0.35897   0.36082   0.36338   0.36347   0.36688
 Alpha virt. eigenvalues --    0.36742   0.37074   0.37678   0.38296   0.38717
 Alpha virt. eigenvalues --    0.39289   0.39334   0.39509   0.39865   0.41015
 Alpha virt. eigenvalues --    0.41204   0.41300   0.41406   0.41752   0.41865
 Alpha virt. eigenvalues --    0.42163   0.42356   0.42512   0.42661   0.42807
 Alpha virt. eigenvalues --    0.43008   0.43206   0.43496   0.43632   0.43930
 Alpha virt. eigenvalues --    0.44132   0.44191   0.44465   0.44577   0.44886
 Alpha virt. eigenvalues --    0.45035   0.45285   0.45485   0.45548   0.45787
 Alpha virt. eigenvalues --    0.45856   0.46215   0.46322   0.46374   0.46447
 Alpha virt. eigenvalues --    0.46896   0.46963   0.47155   0.47293   0.47554
 Alpha virt. eigenvalues --    0.47953   0.48078   0.48261   0.48293   0.48456
 Alpha virt. eigenvalues --    0.48642   0.48881   0.49103   0.49365   0.49450
 Alpha virt. eigenvalues --    0.49518   0.49719   0.49799   0.50231   0.50241
 Alpha virt. eigenvalues --    0.50287   0.50954   0.50987   0.51372   0.51562
 Alpha virt. eigenvalues --    0.51857   0.51934   0.52458   0.52494   0.52704
 Alpha virt. eigenvalues --    0.52843   0.53092   0.53279   0.53652   0.53812
 Alpha virt. eigenvalues --    0.54076   0.54121   0.54923   0.55035   0.55313
 Alpha virt. eigenvalues --    0.55775   0.55946   0.56092   0.56475   0.56644
 Alpha virt. eigenvalues --    0.57184   0.57508   0.58187   0.58329   0.58430
 Alpha virt. eigenvalues --    0.58923   0.59240   0.59665   0.60018   0.60193
 Alpha virt. eigenvalues --    0.60512   0.60673   0.60951   0.61070   0.61084
 Alpha virt. eigenvalues --    0.61263   0.61772   0.62150   0.62502   0.62712
 Alpha virt. eigenvalues --    0.62785   0.63018   0.63244   0.63333   0.63643
 Alpha virt. eigenvalues --    0.64081   0.64341   0.64470   0.64787   0.65039
 Alpha virt. eigenvalues --    0.65383   0.65468   0.65711   0.65947   0.66027
 Alpha virt. eigenvalues --    0.66138   0.66249   0.66321   0.66561   0.66785
 Alpha virt. eigenvalues --    0.66830   0.67093   0.67297   0.67662   0.67972
 Alpha virt. eigenvalues --    0.68073   0.68339   0.68511   0.69037   0.69156
 Alpha virt. eigenvalues --    0.69329   0.69720   0.69857   0.69994   0.70129
 Alpha virt. eigenvalues --    0.70268   0.70640   0.70856   0.71087   0.71292
 Alpha virt. eigenvalues --    0.71423   0.71642   0.71874   0.72229   0.72328
 Alpha virt. eigenvalues --    0.73316   0.73553   0.73650   0.74043   0.74491
 Alpha virt. eigenvalues --    0.74621   0.74783   0.75136   0.75792   0.75914
 Alpha virt. eigenvalues --    0.76210   0.76376   0.77508   0.77855   0.78454
 Alpha virt. eigenvalues --    0.79059   0.79207   0.79306   0.79417   0.79556
 Alpha virt. eigenvalues --    0.79864   0.80414   0.80925   0.81111   0.81474
 Alpha virt. eigenvalues --    0.81928   0.82081   0.82523   0.83310   0.83813
 Alpha virt. eigenvalues --    0.84370   0.84603   0.84709   0.84861   0.84947
 Alpha virt. eigenvalues --    0.84964   0.85197   0.85398   0.85608   0.85742
 Alpha virt. eigenvalues --    0.85961   0.86342   0.86873   0.87224   0.87811
 Alpha virt. eigenvalues --    0.88258   0.88611   0.88806   0.88971   0.89173
 Alpha virt. eigenvalues --    0.89678   0.89812   0.90231   0.90486   0.90955
 Alpha virt. eigenvalues --    0.91326   0.91525   0.91831   0.92153   0.92737
 Alpha virt. eigenvalues --    0.93143   0.93204   0.93434   0.93622   0.94098
 Alpha virt. eigenvalues --    0.94335   0.94875   0.95185   0.95529   0.95671
 Alpha virt. eigenvalues --    0.96335   0.96732   0.96825   0.97332   0.97891
 Alpha virt. eigenvalues --    0.98323   0.98711   0.98865   0.99231   0.99639
 Alpha virt. eigenvalues --    1.00251   1.00389   1.00861   1.01472   1.01619
 Alpha virt. eigenvalues --    1.02014   1.02355   1.02609   1.03526   1.03802
 Alpha virt. eigenvalues --    1.04557   1.04811   1.05164   1.05478   1.05720
 Alpha virt. eigenvalues --    1.06230   1.06384   1.06562   1.06881   1.07296
 Alpha virt. eigenvalues --    1.07368   1.07611   1.08102   1.08463   1.08860
 Alpha virt. eigenvalues --    1.08967   1.09618   1.09895   1.10207   1.10563
 Alpha virt. eigenvalues --    1.10653   1.11215   1.11376   1.12112   1.12374
 Alpha virt. eigenvalues --    1.12416   1.12893   1.13329   1.13560   1.13825
 Alpha virt. eigenvalues --    1.14137   1.14444   1.14683   1.15129   1.15274
 Alpha virt. eigenvalues --    1.15533   1.15866   1.16139   1.16377   1.16718
 Alpha virt. eigenvalues --    1.16992   1.17495   1.18022   1.18385   1.19059
 Alpha virt. eigenvalues --    1.19122   1.19549   1.19836   1.20164   1.20354
 Alpha virt. eigenvalues --    1.20615   1.20867   1.21014   1.21232   1.22212
 Alpha virt. eigenvalues --    1.22390   1.23125   1.23231   1.25272   1.26214
 Alpha virt. eigenvalues --    1.26570   1.26954   1.28459   1.29274   1.29868
 Alpha virt. eigenvalues --    1.30026   1.31118   1.31215   1.31428   1.31545
 Alpha virt. eigenvalues --    1.32860   1.33314   1.34175   1.34781   1.35662
 Alpha virt. eigenvalues --    1.35940   1.36717   1.37904   1.38242   1.38669
 Alpha virt. eigenvalues --    1.39117   1.39905   1.40513   1.41016   1.41738
 Alpha virt. eigenvalues --    1.41886   1.42310   1.43068   1.43691   1.45643
 Alpha virt. eigenvalues --    1.45807   1.46744   1.47051   1.48031   1.48668
 Alpha virt. eigenvalues --    1.48841   1.48945   1.49404   1.49581   1.49663
 Alpha virt. eigenvalues --    1.49933   1.49994   1.50397   1.50482   1.50767
 Alpha virt. eigenvalues --    1.50983   1.51554   1.51828   1.51998   1.52201
 Alpha virt. eigenvalues --    1.52330   1.52743   1.52825   1.53728   1.53811
 Alpha virt. eigenvalues --    1.54436   1.54785   1.55167   1.55357   1.55709
 Alpha virt. eigenvalues --    1.56109   1.56390   1.57275   1.57881   1.58064
 Alpha virt. eigenvalues --    1.58459   1.58967   1.59099   1.59754   1.59878
 Alpha virt. eigenvalues --    1.60713   1.61016   1.61179   1.61245   1.61520
 Alpha virt. eigenvalues --    1.61549   1.62011   1.62060   1.62136   1.62364
 Alpha virt. eigenvalues --    1.62553   1.62868   1.63024   1.63503   1.63971
 Alpha virt. eigenvalues --    1.64420   1.64758   1.65027   1.65289   1.65508
 Alpha virt. eigenvalues --    1.65615   1.65777   1.65851   1.65942   1.66337
 Alpha virt. eigenvalues --    1.66630   1.66892   1.67039   1.67759   1.68217
 Alpha virt. eigenvalues --    1.68612   1.69155   1.69947   1.70282   1.70758
 Alpha virt. eigenvalues --    1.70895   1.71407   1.71769   1.71879   1.72209
 Alpha virt. eigenvalues --    1.72324   1.72938   1.73286   1.73480   1.73719
 Alpha virt. eigenvalues --    1.73809   1.73957   1.74220   1.75133   1.75600
 Alpha virt. eigenvalues --    1.76036   1.76191   1.77259   1.77886   1.78529
 Alpha virt. eigenvalues --    1.78971   1.79248   1.79405   1.79962   1.80041
 Alpha virt. eigenvalues --    1.80104   1.80270   1.80427   1.80731   1.81805
 Alpha virt. eigenvalues --    1.81951   1.82334   1.82505   1.82877   1.83546
 Alpha virt. eigenvalues --    1.83617   1.83950   1.84405   1.84464   1.84539
 Alpha virt. eigenvalues --    1.85020   1.85140   1.85643   1.85967   1.86409
 Alpha virt. eigenvalues --    1.86731   1.87080   1.88057   1.88728   1.90068
 Alpha virt. eigenvalues --    1.90592   1.90853   1.90966   1.92241   1.92505
 Alpha virt. eigenvalues --    1.93133   1.93348   1.94003   1.94400   1.94737
 Alpha virt. eigenvalues --    1.94967   1.95332   1.95744   1.96090   1.96273
 Alpha virt. eigenvalues --    1.96588   1.96840   1.97392   1.97572   1.97805
 Alpha virt. eigenvalues --    1.98114   1.98198   1.98447   1.98553   1.98926
 Alpha virt. eigenvalues --    1.99025   1.99175   1.99206   1.99685   1.99718
 Alpha virt. eigenvalues --    1.99959   2.00634   2.00730   2.01073   2.01135
 Alpha virt. eigenvalues --    2.01457   2.01506   2.01557   2.02056   2.02633
 Alpha virt. eigenvalues --    2.02836   2.03602   2.04232   2.04442   2.05213
 Alpha virt. eigenvalues --    2.05548   2.05789   2.06123   2.06609   2.06764
 Alpha virt. eigenvalues --    2.07228   2.07358   2.08086   2.08307   2.08618
 Alpha virt. eigenvalues --    2.09299   2.09436   2.10103   2.11172   2.11398
 Alpha virt. eigenvalues --    2.12073   2.12280   2.13128   2.13386   2.13529
 Alpha virt. eigenvalues --    2.14035   2.14522   2.14770   2.15286   2.15393
 Alpha virt. eigenvalues --    2.15470   2.15712   2.15810   2.15950   2.17032
 Alpha virt. eigenvalues --    2.17408   2.17757   2.18255   2.18671   2.19220
 Alpha virt. eigenvalues --    2.19382   2.20602   2.21724   2.22180   2.22760
 Alpha virt. eigenvalues --    2.23640   2.24399   2.24765   2.24965   2.25818
 Alpha virt. eigenvalues --    2.27524   2.29244   2.29490   2.31216   2.32369
 Alpha virt. eigenvalues --    2.33084   2.33548   2.33882   2.34134   2.35209
 Alpha virt. eigenvalues --    2.35427   2.35853   2.36835   2.37546   2.37719
 Alpha virt. eigenvalues --    2.38034   2.38394   2.38769   2.38995   2.39457
 Alpha virt. eigenvalues --    2.39926   2.40124   2.40372   2.41409   2.41476
 Alpha virt. eigenvalues --    2.41864   2.42193   2.42535   2.42835   2.43217
 Alpha virt. eigenvalues --    2.43278   2.44451   2.44569   2.44871   2.45311
 Alpha virt. eigenvalues --    2.46251   2.46602   2.46792   2.47152   2.47318
 Alpha virt. eigenvalues --    2.48287   2.48812   2.49070   2.49199   2.51135
 Alpha virt. eigenvalues --    2.51219   2.51626   2.52653   2.55019   2.55612
 Alpha virt. eigenvalues --    2.55817   2.56129   2.57385   2.58334   2.59039
 Alpha virt. eigenvalues --    2.59569   2.60082   2.60415   2.60591   2.62383
 Alpha virt. eigenvalues --    2.62989   2.63240   2.63374   2.64215   2.64831
 Alpha virt. eigenvalues --    2.65015   2.65270   2.66136   2.66515   2.66617
 Alpha virt. eigenvalues --    2.66863   2.67480   2.67651   2.67815   2.68000
 Alpha virt. eigenvalues --    2.68294   2.68795   2.68902   2.69184   2.69235
 Alpha virt. eigenvalues --    2.69352   2.69497   2.69618   2.69715   2.69910
 Alpha virt. eigenvalues --    2.70236   2.70398   2.70697   2.71030   2.71437
 Alpha virt. eigenvalues --    2.71802   2.72231   2.72861   2.72971   2.73204
 Alpha virt. eigenvalues --    2.73453   2.73735   2.74264   2.74407   2.74562
 Alpha virt. eigenvalues --    2.74990   2.75208   2.75267   2.75544   2.75968
 Alpha virt. eigenvalues --    2.76198   2.76532   2.76964   2.77806   2.78042
 Alpha virt. eigenvalues --    2.78168   2.78300   2.78722   2.78871   2.79053
 Alpha virt. eigenvalues --    2.79235   2.80018   2.80371   2.80724   2.81446
 Alpha virt. eigenvalues --    2.81641   2.82195   2.82812   2.83057   2.83208
 Alpha virt. eigenvalues --    2.83292   2.84724   2.84976   2.85870   2.86083
 Alpha virt. eigenvalues --    2.86815   2.87322   2.87827   2.88264   2.88725
 Alpha virt. eigenvalues --    2.89269   2.89778   2.90299   2.90595   2.90883
 Alpha virt. eigenvalues --    2.91315   2.91487   2.92349   2.92903   2.93439
 Alpha virt. eigenvalues --    2.93708   2.94065   2.94766   2.95681   2.96059
 Alpha virt. eigenvalues --    2.96484   2.97129   2.98015   2.98225   2.98465
 Alpha virt. eigenvalues --    2.98968   2.99133   2.99291   2.99494   2.99818
 Alpha virt. eigenvalues --    3.00380   3.00852   3.01255   3.01866   3.02781
 Alpha virt. eigenvalues --    3.02912   3.03315   3.05034   3.06208   3.06357
 Alpha virt. eigenvalues --    3.07377   3.07843   3.08312   3.08496   3.08812
 Alpha virt. eigenvalues --    3.09319   3.10326   3.10892   3.10973   3.11249
 Alpha virt. eigenvalues --    3.12745   3.12807   3.12940   3.14065   3.14688
 Alpha virt. eigenvalues --    3.15127   3.16149   3.17379   3.17805   3.19179
 Alpha virt. eigenvalues --    3.19937   3.21307   3.22100   3.22929   3.23711
 Alpha virt. eigenvalues --    3.23961   3.24588   3.25181   3.26818   3.27800
 Alpha virt. eigenvalues --    3.28425   3.29185   3.30767   3.30857   3.31654
 Alpha virt. eigenvalues --    3.32813   3.34808   3.35338   3.38145   3.38633
 Alpha virt. eigenvalues --    3.39113   3.40388   3.40695   3.41140   3.41439
 Alpha virt. eigenvalues --    3.41511   3.42045   3.43006   3.43183   3.43493
 Alpha virt. eigenvalues --    3.43777   3.44461   3.45308   3.45665   3.45804
 Alpha virt. eigenvalues --    3.46821   3.47115   3.50854   3.53205   3.53435
 Alpha virt. eigenvalues --    3.53655   3.54059   3.54379   3.55115   3.55432
 Alpha virt. eigenvalues --    3.55691   3.56087   3.56206   3.58189   3.59513
 Alpha virt. eigenvalues --    3.60349   3.62512   3.62738   3.63282   3.64581
 Alpha virt. eigenvalues --    3.65233   3.66605   3.68056   3.68562   3.68758
 Alpha virt. eigenvalues --    3.69251   3.69598   3.75347   3.75959   3.78900
 Alpha virt. eigenvalues --    3.81851   3.81929   3.84582   3.85364   3.86498
 Alpha virt. eigenvalues --    3.88328   3.92273   3.93570   3.93712   3.95584
 Alpha virt. eigenvalues --    3.96101   3.99106   4.01397   4.01723   4.03206
 Alpha virt. eigenvalues --    4.03650   4.04055   4.04168   4.04905   4.06690
 Alpha virt. eigenvalues --    4.07355   4.08041   4.09987   4.10214   4.12402
 Alpha virt. eigenvalues --    4.12541   4.12802   4.16459   4.16521   4.17697
 Alpha virt. eigenvalues --    4.17808   4.18659   4.18950   4.19337   4.19787
 Alpha virt. eigenvalues --    4.20717   4.21209   4.22039   4.22481   4.23699
 Alpha virt. eigenvalues --    4.23911   4.25710   4.26535   4.27138   4.36569
 Alpha virt. eigenvalues --    4.49559   4.54420   4.55491   4.59357   4.61800
 Alpha virt. eigenvalues --    4.76893   4.89406   4.90288   4.90405   4.90625
 Alpha virt. eigenvalues --    4.91101   4.91173   4.91252   4.96153   4.96291
 Alpha virt. eigenvalues --    4.98648   5.08021   5.10191   5.12934   5.21971
 Alpha virt. eigenvalues --    5.34128   5.34154   5.34397   5.45454   5.61492
 Alpha virt. eigenvalues --    5.83064   5.83388   5.85936   7.86703  17.25882
 Alpha virt. eigenvalues --   17.56161  17.60559  23.49417  23.53460  23.58507
 Alpha virt. eigenvalues --   23.59108  23.61409  23.66830  23.69531  23.76784
 Alpha virt. eigenvalues --   23.83394  23.86053  23.87087  23.91485  23.91581
 Alpha virt. eigenvalues --   23.94437  23.95064  23.95400  23.95837  23.96731
 Alpha virt. eigenvalues --   23.97358  23.98088  23.98752  23.98942  23.99073
 Alpha virt. eigenvalues --   23.99282  23.99423  24.01723  24.03955  24.04718
 Alpha virt. eigenvalues --   24.06673  24.09279  24.09361  24.10177  24.12360
 Alpha virt. eigenvalues --   24.12837  24.15512  24.15912  24.16463  24.16480
 Alpha virt. eigenvalues --   24.16931  24.18495  24.18971  24.23325  24.23390
 Alpha virt. eigenvalues --   24.23512  24.24161  24.24599  24.24825  24.48924
 Alpha virt. eigenvalues --   35.64426  35.69971  35.75919  35.88910  49.88566
 Alpha virt. eigenvalues --   49.96041  49.96137  50.05854 188.91651
          Condensed to atoms (all electrons):
 Mulliken charges:
               1
     1  C   -0.101587
     2  C   -0.104114
     3  C   -0.294630
     4  C    0.185628
     5  C    0.213313
     6  C   -0.331498
     7  H    0.097614
     8  H    0.107523
     9  C    0.134912
    10  C    0.113800
    11  C   -0.147962
    12  C   -0.148159
    13  C    0.010847
    14  C   -0.034390
    15  H    0.136874
    16  C   -0.105882
    17  H    0.148002
    18  C   -0.016174
    19  C   -0.023184
    20  C   -0.135038
    21  C    0.199870
    22  C   -0.130326
    23  C   -0.101048
    24  H    0.130576
    25  H    0.128163
    26  C   -0.076348
    27  H    0.126669
    28  H    0.106221
    29  C   -0.095352
    30  C   -0.102321
    31  C   -0.109184
    32  H    0.109782
    33  C   -0.052169
    34  C    0.026326
    35  C   -0.056940
    36  C   -0.094755
    37  C    0.162249
    38  C   -0.140332
    39  C   -0.048826
    40  H    0.113067
    41  H    0.115768
    42  C    0.035514
    43  H    0.118048
    44  H    0.116662
    45  C    0.024955
    46  C   -0.056898
    47  C   -0.094603
    48  C    0.162075
    49  C   -0.141125
    50  C   -0.050975
    51  H    0.113526
    52  H    0.116160
    53  H    0.117716
    54  H    0.117023
    55  C   -0.207786
    56  H    0.116798
    57  H    0.111877
    58  H    0.095392
    59  H    0.107530
    60  H    0.112738
    61  C   -0.031919
    62  H    0.110260
    63  H    0.107150
    64  C   -0.150648
    65  C    0.420524
    66  H    0.107648
    67  H    0.117680
    68  S    0.383811
    69  N   -0.327930
    70  N   -0.309457
    71  N   -0.487130
    72  C   -0.038006
    73  C   -0.150884
    74  C   -0.030212
    75  C   -0.037496
    76  C   -0.093604
    77  C   -0.102370
    78  H    0.137420
    79  H    0.116418
    80  H    0.117105
    81  H    0.137122
    82  H    0.117240
    83  H    0.116995
    84  O   -0.344931
    85  O   -0.345078
    86  H    0.109346
    87  O   -0.284656
    88  O   -0.291787
    89  C    0.044255
    90  N   -0.193431
    91  H    0.244953
 Sum of Mulliken charges =  -0.00000
 Mulliken charges with hydrogens summed into heavy atoms:
               1
     1  C    0.005943
     2  C    0.003036
     3  C   -0.294630
     4  C    0.185628
     5  C    0.213313
     6  C   -0.331498
     9  C    0.134912
    10  C    0.113800
    11  C    0.222980
    12  C    0.223198
    13  C    0.010847
    14  C    0.113611
    16  C    0.003463
    18  C   -0.016174
    19  C    0.107393
    20  C   -0.006875
    21  C    0.199870
    22  C   -0.003658
    23  C    0.005172
    26  C    0.021266
    29  C    0.012171
    30  C    0.005327
    31  C   -0.109184
    33  C    0.084705
    34  C    0.026326
    35  C    0.056128
    36  C    0.021013
    37  C    0.162249
    38  C   -0.022283
    39  C    0.067836
    42  C    0.130906
    45  C    0.024955
    46  C    0.056628
    47  C    0.021557
    48  C    0.162075
    49  C   -0.023410
    50  C    0.066048
    55  C   -0.207786
    61  C    0.085761
    64  C   -0.150648
    65  C    0.420524
    68  S    0.383811
    69  N   -0.327930
    70  N   -0.309457
    71  N   -0.487130
    72  C    0.072253
    73  C   -0.150884
    74  C    0.086586
    75  C    0.074381
    76  C    0.016178
    77  C    0.010368
    84  O   -0.344931
    85  O   -0.345078
    87  O   -0.284656
    88  O   -0.046834
    89  C    0.044255
    90  N   -0.193431
 Electronic spatial extent (au):  <R**2>=          70041.3233
 Charge=             -0.0000 electrons
 Dipole moment (field-independent basis, Debye):
    X=             12.9498    Y=              0.7509    Z=             -1.4652  Tot=             13.0540
 Quadrupole moment (field-independent basis, Debye-Ang):
   XX=           -458.8747   YY=           -288.2829   ZZ=           -311.2430
   XY=            -23.1053   XZ=             15.0541   YZ=             16.0681
 Traceless Quadrupole moment (field-independent basis, Debye-Ang):
   XX=           -106.0745   YY=             64.5173   ZZ=             41.5572
   XY=            -23.1053   XZ=             15.0541   YZ=             16.0681
 Octapole moment (field-independent basis, Debye-Ang**2):
  XXX=           2007.0513  YYY=             12.8333  ZZZ=              6.2654  XYY=             44.3019
  XXY=            375.6676  XXZ=           -155.1945  XZZ=            228.8445  YZZ=            -14.7076
  YYZ=            -90.9379  XYZ=             77.9987
 Hexadecapole moment (field-independent basis, Debye-Ang**3):
 XXXX=         -91713.0286 YYYY=         -21220.1410 ZZZZ=          -3690.2110 XXXY=          -5060.1662
 XXXZ=           2711.9898 YYYX=           -360.1661 YYYZ=            446.3754 ZZZX=            136.5672
 ZZZY=            501.4811 XXYY=         -15321.0403 XXZZ=         -10826.5650 YYZZ=          -4004.9946
 XXYZ=           1767.7993 YYXZ=             32.7662 ZZXY=           -225.8684
 N-N= 6.899318323917D+03 E-N=-2.025925878300D+04  KE= 2.758078675006D+03
 Unable to Open any file for archive entry.
 1\1\GINC-CN105\SP\RCAM-B3LYP TD-FC\6-311G(d,p)\C48H34N4O4S1\R2532\27-J
 ul-2021\0\\#N TD(NStates=10) CAM-B3lYP/6-311G(d,p)\\C25H20ON4\\0,1\C,0
 ,-4.631031,5.361136,-2.411965\C,0,0.952221,5.740697,-1.473753\C,0,-0.1
 46433,-0.44537,0.14703\C,0,-0.947089,0.692174,-0.068337\C,0,-2.35902,0
 .429567,-0.016011\C,0,-2.679179,-0.90898,0.260187\H,0,-5.288656,-4.617
 098,1.156981\H,0,0.860507,7.799804,-0.847875\C,0,-2.784972,2.629555,-0
 .531279\C,0,-1.353809,2.914069,-0.481952\C,0,7.824722,-5.776095,-3.623
 969\C,0,8.820585,3.045063,3.915736\C,0,-3.958167,-1.574327,0.389483\C,
 0,-5.176556,-0.890741,0.151509\H,0,-7.291372,-0.958003,0.072563\C,0,-4
 .04353,-2.938276,0.753936\H,0,-5.141231,0.149716,-0.135119\C,0,1.29754
 7,-0.598599,0.150351\C,0,2.162457,0.505724,0.306889\C,0,3.536785,0.351
 629,0.317724\C,0,4.132468,-0.918346,0.171651\C,0,3.273532,-2.027315,0.
 018133\C,0,1.901525,-1.865332,0.006245\H,0,1.739779,1.494807,0.40786\H
 ,0,4.164243,1.225272,0.435011\C,0,-5.26243,-3.570822,0.872697\H,0,3.69
 1571,-3.01869,-0.094374\H,0,1.284605,-2.747058,-0.127164\C,0,0.40428,6
 .818861,-0.779223\C,0,-0.731085,6.628444,0.007254\C,0,-6.479154,-2.889
 616,0.638832\H,0,-6.588008,6.143747,-1.971527\C,0,-6.394931,-1.527437,
 0.271705\C,0,6.371743,-0.113043,0.805884\C,0,7.424824,0.474129,0.09151
 9\C,0,8.271763,1.383955,0.703834\C,0,8.078764,1.742664,2.045104\C,0,7.
 027087,1.165339,2.763738\C,0,6.191132,0.237049,2.144271\H,0,7.579146,0
 .209308,-0.94769\H,0,9.088486,1.839686,0.156997\C,0,-7.695069,-3.64739
 4,0.790412\H,0,6.857048,1.415032,3.802069\H,0,5.387599,-0.216572,2.712
 302\C,0,6.141089,-2.190242,-0.470033\C,0,7.052582,-2.993299,0.228903\C
 ,0,7.68093,-4.057226,-0.398404\C,0,7.40267,-4.356297,-1.739342\C,0,6.4
 91011,-3.562645,-2.442798\C,0,5.877831,-2.482852,-1.808608\H,0,7.26951
 ,-2.776009,1.267963\H,0,8.38737,-4.680452,0.136639\H,0,6.261671,-3.761
 504,-3.480711\H,0,5.184685,-1.863495,-2.365415\C,0,-9.015144,-3.303944
 ,0.695865\H,0,-2.717927,4.41289,-2.611118\H,0,-5.148781,3.074038,0.663
 746\H,0,-7.506319,-4.683242,1.059202\H,0,-4.48742,5.987204,-3.285059\H
 ,0,-6.913955,4.681992,0.008889\C,0,-1.326181,5.372509,0.08809\H,0,0.79
 8017,3.639362,-1.911234\H,0,1.835597,5.880502,-2.086415\C,0,-0.783844,
 4.283523,-0.607833\C,0,-10.121801,-4.275787,0.951255\H,0,-1.154853,7.4
 58551,0.560742\H,0,-2.205096,5.237183,0.706238\S,0,-1.186602,-1.801887
 ,0.445836\N,0,-3.24773,1.425711,-0.272546\N,0,-0.483638,1.946718,-0.28
 8249\N,0,5.519459,-1.074533,0.175518\C,0,0.368612,4.480809,-1.381344\C
 ,0,-3.80555,3.6432,-0.914214\C,0,-3.629759,4.472905,-2.029876\C,0,-5.0
 04933,3.721022,-0.192913\C,0,-5.813238,5.444955,-1.677486\C,0,-5.99673
 3,4.62306,-0.565829\H,0,8.446316,-6.647642,-3.819049\H,0,6.774233,-6.0
 34687,-3.789716\H,0,8.113716,-4.965439,-4.300067\H,0,9.616962,3.763855
 ,4.097804\H,0,7.852263,3.522568,4.09503\H,0,8.939376,2.192469,4.591564
 \O,0,8.064222,-5.426213,-2.261112\O,0,8.959743,2.649126,2.551526\H,0,-
 3.143257,-3.508059,0.950856\O,0,-11.24029,-3.925952,1.237937\O,0,-9.83
 4414,-5.595084,0.86736\C,0,-9.478038,-1.97966,0.450833\N,0,-9.870299,-
 0.911276,0.245382\H,0,-8.98977,-5.75154,0.426869\\Version=ES64L-G16Rev
 C.01\State=1-A\HF=-2766.9683759\RMSD=5.632e-09\PG=C01 [X(C48H34N4O4S1)
 ]\\@
 The archive entry for this job was punched.


 IF NO USE IS MADE OF THE LABOR OF PAST AGES,
 THE WORLD MUST REMAIN ALWAYS IN THE INFANCY OF KNOWLEDGE.

                          -- CICERO
 Job cpu time:       0 days  9 hours 48 minutes 22.5 seconds.
 Elapsed time:       0 days  9 hours 48 minutes 27.4 seconds.
 File lengths (MBytes):  RWF=   9270 Int=      0 D2E=      0 Chk=    574 Scr=      1
 Normal termination of Gaussian 16 at Tue Jul 27 20:34:44 2021.
