 Entering Gaussian System, Link 0=g16
 Input=mex.com
 Output=mex.out
 Initial command:
 /usr/local/apps/gaussian/g16-b01-avx2//g16/l1.exe "/tmp/r2532.885996.maple/Gau-38456.inp" -scrdir="/tmp/r2532.885996.maple/"
 Entering Link 1 = /usr/local/apps/gaussian/g16-b01-avx2//g16/l1.exe PID=     38457.
  
 Copyright (c) 1988-2017, Gaussian, Inc.  All Rights Reserved.
  
 This is part of the Gaussian(R) 16 program.  It is based on
 the Gaussian(R) 09 system (copyright 2009, Gaussian, Inc.),
 the Gaussian(R) 03 system (copyright 2003, Gaussian, Inc.),
 the Gaussian(R) 98 system (copyright 1998, Gaussian, Inc.),
 the Gaussian(R) 94 system (copyright 1995, Gaussian, Inc.),
 the Gaussian 92(TM) system (copyright 1992, Gaussian, Inc.),
 the Gaussian 90(TM) system (copyright 1990, Gaussian, Inc.),
 the Gaussian 88(TM) system (copyright 1988, Gaussian, Inc.),
 the Gaussian 86(TM) system (copyright 1986, Carnegie Mellon
 University), and the Gaussian 82(TM) system (copyright 1983,
 Carnegie Mellon University). Gaussian is a federally registered
 trademark of Gaussian, Inc.
  
 This software contains proprietary and confidential information,
 including trade secrets, belonging to Gaussian, Inc.
  
 This software is provided under written license and may be
 used, copied, transmitted, or stored only in accord with that
 written license.
  
 The following legend is applicable only to US Government
 contracts under FAR:
  
                    RESTRICTED RIGHTS LEGEND
  
 Use, reproduction and disclosure by the US Government is
 subject to restrictions as set forth in subparagraphs (a)
 and (c) of the Commercial Computer Software - Restricted
 Rights clause in FAR 52.227-19.
  
 Gaussian, Inc.
 340 Quinnipiac St., Bldg. 40, Wallingford CT 06492
  
  
 ---------------------------------------------------------------
 Warning -- This program may not be used in any manner that
 competes with the business of Gaussian, Inc. or will provide
 assistance to any competitor of Gaussian, Inc.  The licensee
 of this program is prohibited from giving any competitor of
 Gaussian, Inc. access to this program.  By using this program,
 the user acknowledges that Gaussian, Inc. is engaged in the
 business of creating and licensing software in the field of
 computational chemistry and represents and warrants to the
 licensee that it is not a competitor of Gaussian, Inc. and that
 it will not use this program in any manner prohibited above.
 ---------------------------------------------------------------
  

 Cite this work as:
 Gaussian 16, Revision B.01,
 M. J. Frisch, G. W. Trucks, H. B. Schlegel, G. E. Scuseria, 
 M. A. Robb, J. R. Cheeseman, G. Scalmani, V. Barone, 
 G. A. Petersson, H. Nakatsuji, X. Li, M. Caricato, A. V. Marenich, 
 J. Bloino, B. G. Janesko, R. Gomperts, B. Mennucci, H. P. Hratchian, 
 J. V. Ortiz, A. F. Izmaylov, J. L. Sonnenberg, D. Williams-Young, 
 F. Ding, F. Lipparini, F. Egidi, J. Goings, B. Peng, A. Petrone, 
 T. Henderson, D. Ranasinghe, V. G. Zakrzewski, J. Gao, N. Rega, 
 G. Zheng, W. Liang, M. Hada, M. Ehara, K. Toyota, R. Fukuda, 
 J. Hasegawa, M. Ishida, T. Nakajima, Y. Honda, O. Kitao, H. Nakai, 
 T. Vreven, K. Throssell, J. A. Montgomery, Jr., J. E. Peralta, 
 F. Ogliaro, M. J. Bearpark, J. J. Heyd, E. N. Brothers, K. N. Kudin, 
 V. N. Staroverov, T. A. Keith, R. Kobayashi, J. Normand, 
 K. Raghavachari, A. P. Rendell, J. C. Burant, S. S. Iyengar, 
 J. Tomasi, M. Cossi, J. M. Millam, M. Klene, C. Adamo, R. Cammi, 
 J. W. Ochterski, R. L. Martin, K. Morokuma, O. Farkas, 
 J. B. Foresman, and D. J. Fox, Gaussian, Inc., Wallingford CT, 2016.
 
 ******************************************
 Gaussian 16:  ES64L-G16RevB.01 20-Dec-2017
                 8-Jul-2021 
 ******************************************
 %mem=8gb
 -------------------------------------
 #N TD(NStates=10) PBE1PBE/6-311G(d,p)
 -------------------------------------
 1/38=1,172=1/1;
 2/12=2,17=6,18=5,40=1/2;
 3/5=4,6=6,7=101,11=9,25=1,30=1,74=-13/1,2,3,8;
 4//1;
 5/5=2,38=5/2;
 8/6=1,10=2,108=10/1;
 9/41=10,42=1,70=2/14;
 6/7=2,8=2,9=2,10=2/1;
 99/5=1,9=1/99;
 ----
 Name
 ----
 Symbolic Z-matrix:
 Charge =  0 Multiplicity = 1
 6                    -8.18249   7.12857  -1.10595 
 8                    -7.42423   6.34312  -0.19744 
 6                    -7.5943    4.99053  -0.21021 
 6                    -8.46962   4.30292  -1.0542 
 6                    -8.55607   2.91276  -0.98279 
 6                    -7.79456   2.18938  -0.06524 
 7                    -7.91427   0.76933   0.02046 
 6                    -6.77422  -0.05077   0.00591 
 6                    -6.76859  -1.29719   0.65948 
 6                    -5.6441   -2.1045    0.64103 
 6                    -4.46769  -1.71623  -0.02414 
 6                    -4.47861  -0.4671   -0.66724 
 6                    -5.59988   0.34647  -0.65834 
 1                    -5.57691   1.29358  -1.18167 
 1                    -3.60271  -0.13803  -1.21567 
 6                    -3.29801  -2.59042  -0.04035 
 16                   -1.67925  -1.94831  -0.23798 
 6                    -0.95647  -3.54292  -0.13865 
 6                    -1.93757  -4.49439   0.04475 
 6                    -3.24434  -3.96144   0.09347 
 1                    -4.13075  -4.57135   0.20492 
 1                    -1.7165   -5.548     0.15327 
 6                     0.46609  -3.75546  -0.25352 
 16                    1.62597  -2.48934   0.09096 
 6                     2.98241  -3.54288  -0.26359 
 6                     2.52668  -4.8025   -0.6028 
 6                     1.12366  -4.92082  -0.59969 
 1                     0.5986   -5.82419  -0.87889 
 1                     3.19202  -5.60749  -0.88481 
 6                     4.3482   -3.09528  -0.18096 
 6                     5.48985  -3.87575  -0.10766 
 6                     6.68132  -3.1349   -0.04921 
 6                     6.49506  -1.76173  -0.0655 
 16                    4.77339  -1.40069  -0.18014 
 6                     7.47084  -0.70005  -0.00417 
 6                     7.11059   0.64547   0.0181 
 6                     8.02713   1.70904   0.07505 
 6                     9.40489   1.52292   0.11638 
 6                     9.83934   0.14915   0.09659 
 6                     8.89384  -0.95133   0.03749 
 7                     9.48662  -2.14553   0.02673 
 16                    11.10304  -1.88727   0.08721 
 7                     11.10984  -0.25003   0.12872 
 6                     10.41614   2.5474    0.17702 
 6                     10.31804   3.90763   0.20624 
 6                     9.08674   4.62455   0.17921 
 7                     8.07401   5.18156   0.15628 
 6                     11.52734   4.77024   0.2703 
 8                     12.68259   4.06085   0.29514 
 1                     13.39522   4.71429   0.33615 
 8                     11.50277   5.97554   0.29799 
 1                     11.42922   2.16391   0.20395 
 1                     7.62185   2.7108    0.08811 
 1                     6.0591    0.90584  -0.00696 
 1                     7.6642   -3.57476   0.01645 
 1                     5.45769  -4.95616  -0.07315 
 1                    -5.66562  -3.04124   1.18587 
 1                    -7.64961  -1.62062   1.19872 
 6                    -9.22024   0.20113   0.11517 
 6                    -10.13961   0.68271   1.04701 
 6                    -11.42803   0.15491   1.12779 
 6                    -11.80829  -0.88771   0.2795 
 6                    -10.88714  -1.38091  -0.65371 
 6                    -9.61665  -0.83716  -0.74146 
 1                    -8.91767  -1.21786  -1.47661 
 1                    -11.19929  -2.18243  -1.31221 
 8                    -13.03519  -1.48295   0.27622 
 6                    -14.01309  -1.02042   1.19658 
 1                    -13.68725  -1.1581    2.2338 
 1                    -14.25482   0.03541   1.02963 
 1                    -14.90055  -1.62474   1.01626 
 1                    -12.11458   0.55781   1.86016 
 1                    -9.85      1.48633   1.71356 
 6                    -6.92769   2.8905    0.78659 
 6                    -6.82057   4.26876   0.70812 
 1                    -6.15277   4.81606   1.36226 
 1                    -6.33444   2.34484   1.51064 
 1                    -9.23205   2.38559  -1.64544 
 1                    -9.07899   4.83012  -1.77583 
 1                    -7.89437   8.1615   -0.91818 
 1                    -7.95366   6.87344  -2.14684 
 1                    -9.25887   7.01634  -0.93299 
 
 Stoichiometry    C42H28N4O4S4
 Framework group  C1[X(C42H28N4O4S4)]
 Deg. of freedom   240
 Full point group                 C1      NOp   1
 Largest Abelian subgroup         C1      NOp   1
 Largest concise Abelian subgroup C1      NOp   1
                         Standard orientation:                         
 ---------------------------------------------------------------------
 Center     Atomic      Atomic             Coordinates (Angstroms)
 Number     Number       Type             X           Y           Z
 ---------------------------------------------------------------------
      1          6           0       -8.182487    7.128568   -1.105953
      2          8           0       -7.424227    6.343120   -0.197444
      3          6           0       -7.594299    4.990534   -0.210206
      4          6           0       -8.469618    4.302920   -1.054202
      5          6           0       -8.556066    2.912758   -0.982790
      6          6           0       -7.794556    2.189376   -0.065242
      7          7           0       -7.914267    0.769334    0.020459
      8          6           0       -6.774216   -0.050771    0.005910
      9          6           0       -6.768593   -1.297194    0.659475
     10          6           0       -5.644102   -2.104499    0.641031
     11          6           0       -4.467692   -1.716233   -0.024144
     12          6           0       -4.478614   -0.467096   -0.667243
     13          6           0       -5.599876    0.346473   -0.658344
     14          1           0       -5.576908    1.293575   -1.181667
     15          1           0       -3.602711   -0.138034   -1.215670
     16          6           0       -3.298009   -2.590422   -0.040351
     17         16           0       -1.679247   -1.948306   -0.237981
     18          6           0       -0.956467   -3.542922   -0.138653
     19          6           0       -1.937570   -4.494386    0.044753
     20          6           0       -3.244337   -3.961437    0.093471
     21          1           0       -4.130751   -4.571350    0.204916
     22          1           0       -1.716499   -5.548000    0.153267
     23          6           0        0.466090   -3.755461   -0.253515
     24         16           0        1.625967   -2.489340    0.090960
     25          6           0        2.982405   -3.542881   -0.263590
     26          6           0        2.526680   -4.802500   -0.602800
     27          6           0        1.123658   -4.920823   -0.599690
     28          1           0        0.598595   -5.824193   -0.878894
     29          1           0        3.192024   -5.607489   -0.884805
     30          6           0        4.348203   -3.095277   -0.180959
     31          6           0        5.489847   -3.875750   -0.107659
     32          6           0        6.681322   -3.134897   -0.049206
     33          6           0        6.495056   -1.761727   -0.065502
     34         16           0        4.773393   -1.400692   -0.180140
     35          6           0        7.470840   -0.700054   -0.004172
     36          6           0        7.110588    0.645469    0.018098
     37          6           0        8.027128    1.709041    0.075048
     38          6           0        9.404895    1.522915    0.116380
     39          6           0        9.839338    0.149149    0.096587
     40          6           0        8.893835   -0.951326    0.037490
     41          7           0        9.486622   -2.145534    0.026726
     42         16           0       11.103043   -1.887273    0.087207
     43          7           0       11.109838   -0.250030    0.128721
     44          6           0       10.416144    2.547404    0.177016
     45          6           0       10.318038    3.907627    0.206239
     46          6           0        9.086736    4.624554    0.179205
     47          7           0        8.074009    5.181561    0.156275
     48          6           0       11.527344    4.770239    0.270304
     49          8           0       12.682594    4.060852    0.295141
     50          1           0       13.395218    4.714294    0.336154
     51          8           0       11.502773    5.975544    0.297992
     52          1           0       11.429221    2.163911    0.203953
     53          1           0        7.621846    2.710797    0.088106
     54          1           0        6.059098    0.905844   -0.006957
     55          1           0        7.664200   -3.574760    0.016447
     56          1           0        5.457693   -4.956156   -0.073146
     57          1           0       -5.665615   -3.041239    1.185874
     58          1           0       -7.649607   -1.620623    1.198724
     59          6           0       -9.220243    0.201134    0.115168
     60          6           0      -10.139608    0.682707    1.047013
     61          6           0      -11.428031    0.154911    1.127792
     62          6           0      -11.808286   -0.887709    0.279495
     63          6           0      -10.887142   -1.380914   -0.653708
     64          6           0       -9.616649   -0.837159   -0.741459
     65          1           0       -8.917672   -1.217857   -1.476612
     66          1           0      -11.199291   -2.182431   -1.312207
     67          8           0      -13.035193   -1.482953    0.276218
     68          6           0      -14.013089   -1.020418    1.196578
     69          1           0      -13.687246   -1.158105    2.233800
     70          1           0      -14.254822    0.035405    1.029631
     71          1           0      -14.900545   -1.624742    1.016261
     72          1           0      -12.114575    0.557814    1.860159
     73          1           0       -9.849997    1.486332    1.713561
     74          6           0       -6.927688    2.890499    0.786592
     75          6           0       -6.820574    4.268759    0.708116
     76          1           0       -6.152769    4.816060    1.362263
     77          1           0       -6.334436    2.344841    1.510642
     78          1           0       -9.232054    2.385586   -1.645441
     79          1           0       -9.078993    4.830121   -1.775834
     80          1           0       -7.894368    8.161501   -0.918177
     81          1           0       -7.953658    6.873436   -2.146840
     82          1           0       -9.258874    7.016340   -0.932988
 ---------------------------------------------------------------------
 Rotational constants (GHZ):           0.0651937           0.0099802           0.0087139
 Standard basis: 6-311G(d,p) (5D, 7F)
 There are  1226 symmetry adapted cartesian basis functions of A   symmetry.
 There are  1172 symmetry adapted basis functions of A   symmetry.
  1172 basis functions,  2008 primitive gaussians,  1226 cartesian basis functions
   202 alpha electrons      202 beta electrons
       nuclear repulsion energy      6545.1772242524 Hartrees.
 NAtoms=   82 NActive=   82 NUniq=   82 SFac= 1.00D+00 NAtFMM=   60 NAOKFM=T Big=T
 Integral buffers will be    131072 words long.
 Regular integral format.
 Two-electron integral symmetry is turned on.
 One-electron integrals computed using PRISM.
 NBasis=  1172 RedAO= T EigKep=  1.18D-04  NBF=  1172
 NBsUse=  1172 1.00D-06 EigRej= -1.00D+00 NBFU=  1172
 ExpMin= 7.71D-02 ExpMax= 9.34D+04 ExpMxC= 3.17D+03 IAcc=3 IRadAn=         5 AccDes= 0.00D+00
 Harris functional with IExCor= 1009 and IRadAn=       5 diagonalized for initial guess.
 HarFok:  IExCor= 1009 AccDes= 0.00D+00 IRadAn=         5 IDoV= 1 UseB2=F ITyADJ=14
 ICtDFT=  3500011 ScaDFX=  1.000000  1.000000  1.000000  1.000000
 FoFCou: FMM=F IPFlag=           0 FMFlag=      100000 FMFlg1=        2001
         NFxFlg=           0 DoJE=T BraDBF=F KetDBF=T FulRan=T
         wScrn=  0.000000 ICntrl=       500 IOpCl=  0 I1Cent=   200000004 NGrid=           0
         NMat0=    1 NMatS0=      1 NMatT0=    0 NMatD0=    1 NMtDS0=    0 NMtDT0=    0
 Petite list used in FoFCou.
 Requested convergence on RMS density matrix=1.00D-08 within 128 cycles.
 Requested convergence on MAX density matrix=1.00D-06.
 Requested convergence on             energy=1.00D-06.
 No special actions if energy rises.
 Integral accuracy reduced to 1.0D-05 until final iterations.
 Initial convergence to 1.0D-05 achieved.  Increase integral accuracy.
 SCF Done:  E(RPBE1PBE) =  -3727.45744277     A.U. after   18 cycles
            NFock= 18  Conv=0.27D-08     -V/T= 2.0028
 DoSCS=F DFT=T ScalE2(SS,OS)=  1.000000  1.000000
 ExpMin= 7.71D-02 ExpMax= 9.34D+04 ExpMxC= 3.17D+03 IAcc=3 IRadAn=         5 AccDes= 0.00D+00
 HarFok:  IExCor=  205 AccDes= 0.00D+00 IRadAn=         5 IDoV=-2 UseB2=F ITyADJ=14
 ICtDFT= 12500011 ScaDFX=  1.000000  1.000000  1.000000  1.000000
 GSVD:  LWork=       -5460 too small for GESVD, short by       25550 words or       25550 for optimal perf.
 Range of M.O.s used for correlation:    71  1172
 NBasis=  1172 NAE=   202 NBE=   202 NFC=    70 NFV=     0
 NROrb=   1102 NOA=   132 NOB=   132 NVA=   970 NVB=   970

 **** Warning!!: The largest alpha MO coefficient is  0.15253195D+02


 **** Warning!!: The smallest alpha delta epsilon is  0.65998804D-01

 Orbital symmetries:
       Occupied  (A) (A) (A) (A) (A) (A) (A) (A) (A) (A) (A) (A)
                 (A) (A) (A) (A) (A) (A) (A) (A) (A) (A) (A) (A)
                 (A) (A) (A) (A) (A) (A) (A) (A) (A) (A) (A) (A)
                 (A) (A) (A) (A) (A) (A) (A) (A) (A) (A) (A) (A)
                 (A) (A) (A) (A) (A) (A) (A) (A) (A) (A) (A) (A)
                 (A) (A) (A) (A) (A) (A) (A) (A) (A) (A) (A) (A)
                 (A) (A) (A) (A) (A) (A) (A) (A) (A) (A) (A) (A)
                 (A) (A) (A) (A) (A) (A) (A) (A) (A) (A) (A) (A)
                 (A) (A) (A) (A) (A) (A) (A) (A) (A) (A) (A) (A)
                 (A) (A) (A) (A) (A) (A) (A) (A) (A) (A) (A) (A)
                 (A) (A) (A) (A) (A) (A) (A) (A) (A) (A) (A) (A)
                 (A) (A) (A) (A) (A) (A) (A) (A) (A) (A) (A) (A)
                 (A) (A) (A) (A) (A) (A) (A) (A) (A) (A) (A) (A)
                 (A) (A) (A) (A) (A) (A) (A) (A) (A) (A) (A) (A)
                 (A) (A) (A) (A) (A) (A) (A) (A) (A) (A) (A) (A)
                 (A) (A) (A) (A) (A) (A) (A) (A) (A) (A) (A) (A)
                 (A) (A) (A) (A) (A) (A) (A) (A) (A) (A)
       Virtual   (A) (A) (A) (A) (A) (A) (A) (A) (A) (A) (A) (A)
                 (A) (A) (A) (A) (A) (A) (A) (A) (A) (A) (A) (A)
                 (A) (A) (A) (A) (A) (A) (A) (A) (A) (A) (A) (A)
                 (A) (A) (A) (A) (A) (A) (A) (A) (A) (A) (A) (A)
                 (A) (A) (A) (A) (A) (A) (A) (A) (A) (A) (A) (A)
                 (A) (A) (A) (A) (A) (A) (A) (A) (A) (A) (A) (A)
                 (A) (A) (A) (A) (A) (A) (A) (A) (A) (A) (A) (A)
                 (A) (A) (A) (A) (A) (A) (A) (A) (A) (A) (A) (A)
                 (A) (A) (A) (A) (A) (A) (A) (A) (A) (A) (A) (A)
                 (A) (A) (A) (A) (A) (A) (A) (A) (A) (A) (A) (A)
                 (A) (A) (A) (A) (A) (A) (A) (A) (A) (A) (A) (A)
                 (A) (A) (A) (A) (A) (A) (A) (A) (A) (A) (A) (A)
                 (A) (A) (A) (A) (A) (A) (A) (A) (A) (A) (A) (A)
                 (A) (A) (A) (A) (A) (A) (A) (A) (A) (A) (A) (A)
                 (A) (A) (A) (A) (A) (A) (A) (A) (A) (A) (A) (A)
                 (A) (A) (A) (A) (A) (A) (A) (A) (A) (A) (A) (A)
                 (A) (A) (A) (A) (A) (A) (A) (A) (A) (A) (A) (A)
                 (A) (A) (A) (A) (A) (A) (A) (A) (A) (A) (A) (A)
                 (A) (A) (A) (A) (A) (A) (A) (A) (A) (A) (A) (A)
                 (A) (A) (A) (A) (A) (A) (A) (A) (A) (A) (A) (A)
                 (A) (A) (A) (A) (A) (A) (A) (A) (A) (A) (A) (A)
                 (A) (A) (A) (A) (A) (A) (A) (A) (A) (A) (A) (A)
                 (A) (A) (A) (A) (A) (A) (A) (A) (A) (A) (A) (A)
                 (A) (A) (A) (A) (A) (A) (A) (A) (A) (A) (A) (A)
                 (A) (A) (A) (A) (A) (A) (A) (A) (A) (A) (A) (A)
                 (A) (A) (A) (A) (A) (A) (A) (A) (A) (A) (A) (A)
                 (A) (A) (A) (A) (A) (A) (A) (A) (A) (A) (A) (A)
                 (A) (A) (A) (A) (A) (A) (A) (A) (A) (A) (A) (A)
                 (A) (A) (A) (A) (A) (A) (A) (A) (A) (A) (A) (A)
                 (A) (A) (A) (A) (A) (A) (A) (A) (A) (A) (A) (A)
                 (A) (A) (A) (A) (A) (A) (A) (A) (A) (A) (A) (A)
                 (A) (A) (A) (A) (A) (A) (A) (A) (A) (A) (A) (A)
                 (A) (A) (A) (A) (A) (A) (A) (A) (A) (A) (A) (A)
                 (A) (A) (A) (A) (A) (A) (A) (A) (A) (A) (A) (A)
                 (A) (A) (A) (A) (A) (A) (A) (A) (A) (A) (A) (A)
                 (A) (A) (A) (A) (A) (A) (A) (A) (A) (A) (A) (A)
                 (A) (A) (A) (A) (A) (A) (A) (A) (A) (A) (A) (A)
                 (A) (A) (A) (A) (A) (A) (A) (A) (A) (A) (A) (A)
                 (A) (A) (A) (A) (A) (A) (A) (A) (A) (A) (A) (A)
                 (A) (A) (A) (A) (A) (A) (A) (A) (A) (A) (A) (A)
                 (A) (A) (A) (A) (A) (A) (A) (A) (A) (A) (A) (A)
                 (A) (A) (A) (A) (A) (A) (A) (A) (A) (A) (A) (A)
                 (A) (A) (A) (A) (A) (A) (A) (A) (A) (A) (A) (A)
                 (A) (A) (A) (A) (A) (A) (A) (A) (A) (A) (A) (A)
                 (A) (A) (A) (A) (A) (A) (A) (A) (A) (A) (A) (A)
                 (A) (A) (A) (A) (A) (A) (A) (A) (A) (A) (A) (A)
                 (A) (A) (A) (A) (A) (A) (A) (A) (A) (A) (A) (A)
                 (A) (A) (A) (A) (A) (A) (A) (A) (A) (A) (A) (A)
                 (A) (A) (A) (A) (A) (A) (A) (A) (A) (A) (A) (A)
                 (A) (A) (A) (A) (A) (A) (A) (A) (A) (A) (A) (A)
                 (A) (A) (A) (A) (A) (A) (A) (A) (A) (A) (A) (A)
                 (A) (A) (A) (A) (A) (A) (A) (A) (A) (A) (A) (A)
                 (A) (A) (A) (A) (A) (A) (A) (A) (A) (A) (A) (A)
                 (A) (A) (A) (A) (A) (A) (A) (A) (A) (A) (A) (A)
                 (A) (A) (A) (A) (A) (A) (A) (A) (A) (A) (A) (A)
                 (A) (A) (A) (A) (A) (A) (A) (A) (A) (A) (A) (A)
                 (A) (A) (A) (A) (A) (A) (A) (A) (A) (A) (A) (A)
                 (A) (A) (A) (A) (A) (A) (A) (A) (A) (A) (A) (A)
                 (A) (A) (A) (A) (A) (A) (A) (A) (A) (A) (A) (A)
                 (A) (A) (A) (A) (A) (A) (A) (A) (A) (A) (A) (A)
                 (A) (A) (A) (A) (A) (A) (A) (A) (A) (A) (A) (A)
                 (A) (A) (A) (A) (A) (A) (A) (A) (A) (A) (A) (A)
                 (A) (A) (A) (A) (A) (A) (A) (A) (A) (A) (A) (A)
                 (A) (A) (A) (A) (A) (A) (A) (A) (A) (A) (A) (A)
                 (A) (A) (A) (A) (A) (A) (A) (A) (A) (A) (A) (A)
                 (A) (A) (A) (A) (A) (A) (A) (A) (A) (A) (A) (A)
                 (A) (A) (A) (A) (A) (A) (A) (A) (A) (A) (A) (A)
                 (A) (A) (A) (A) (A) (A) (A) (A) (A) (A) (A) (A)
                 (A) (A) (A) (A) (A) (A) (A) (A) (A) (A) (A) (A)
                 (A) (A) (A) (A) (A) (A) (A) (A) (A) (A) (A) (A)
                 (A) (A) (A) (A) (A) (A) (A) (A) (A) (A) (A) (A)
                 (A) (A) (A) (A) (A) (A) (A) (A) (A) (A) (A) (A)
                 (A) (A) (A) (A) (A) (A) (A) (A) (A) (A) (A) (A)
                 (A) (A) (A) (A) (A) (A) (A) (A) (A) (A) (A) (A)
                 (A) (A) (A) (A) (A) (A) (A) (A) (A) (A) (A) (A)
                 (A) (A) (A) (A) (A) (A) (A) (A) (A) (A) (A) (A)
                 (A) (A) (A) (A) (A) (A) (A) (A) (A) (A) (A) (A)
                 (A) (A) (A) (A) (A) (A) (A) (A) (A) (A) (A) (A)
                 (A) (A) (A) (A) (A) (A) (A) (A) (A) (A) (A) (A)
                 (A) (A) (A) (A) (A) (A) (A) (A) (A) (A) (A) (A)
                 (A) (A) (A) (A) (A) (A) (A) (A) (A) (A)
    40 initial guesses have been made.
 Convergence on wavefunction:    0.001000000000000
 Iteration     1 Dimension    40 NMult     0 NNew     40
 CISAX will form    40 AO SS matrices at one time.
 New state      4 was old state      5
 New state      5 was old state      4
 New state      9 was old state     10
 New state     10 was old state     11
 Iteration     2 Dimension    60 NMult    40 NNew     20
 Iteration     3 Dimension    80 NMult    60 NNew     20
 Iteration     4 Dimension   100 NMult    80 NNew     20
 Iteration     5 Dimension   120 NMult   100 NNew     20
 Iteration     6 Dimension   128 NMult   120 NNew      8
 Iteration     7 Dimension   130 NMult   128 NNew      2
 Iteration     8 Dimension   132 NMult   130 NNew      2
 Iteration     9 Dimension   134 NMult   132 NNew      2
 Convergence on energies, max DE= 4.27D-06.
 ***********************************************************************
 Excited states from <AA,BB:AA,BB> singles matrix:
 ***********************************************************************
 
 Ground to excited state transition densities written to RWF  633
 Ground to excited state transition electric dipole moments (Au):
       state          X           Y           Z        Dip. S.      Osc.
         1        -3.2007     -0.6277     -0.0437     10.6406      0.4036
         2         3.2687      1.7918      0.1056     13.9061      0.7106
         3        -3.1031      0.4550      0.0192      9.8367      0.6393
         4        -0.2855      1.1614      0.0655      1.4347      0.0974
         5         0.2915     -1.5949     -0.0769      2.6346      0.1898
         6         0.3175      0.2522     -0.0085      0.1645      0.0129
         7         1.8344      0.6555      0.0216      3.7953      0.2977
         8        -0.0369     -0.0646      0.0102      0.0056      0.0005
         9        -1.0083      1.7030      0.0945      3.9257      0.3316
        10         0.8082     -0.7406     -0.0595      1.2053      0.1048
 Ground to excited state transition velocity dipole moments (Au):
       state          X           Y           Z        Dip. S.      Osc.
         1         0.1788      0.0353      0.0027      0.0332      0.3892
         2        -0.2491     -0.1361     -0.0081      0.0807      0.7014
         3         0.2997     -0.0431     -0.0011      0.0917      0.6271
         4         0.0230     -0.1186     -0.0064      0.0146      0.0958
         5        -0.0329      0.1717      0.0077      0.0306      0.1888
         6        -0.0366     -0.0292      0.0009      0.0022      0.0124
         7        -0.2109     -0.0761     -0.0025      0.0503      0.2850
         8         0.0078      0.0099     -0.0003      0.0002      0.0009
         9         0.1304     -0.2160     -0.0123      0.0638      0.3358
        10        -0.1049      0.0972      0.0094      0.0205      0.1049
 Ground to excited state transition magnetic dipole moments (Au):
       state          X           Y           Z
         1         0.0138     -0.1124      2.1065
         2        -0.0006      0.1974     -3.4052
         3         0.0585     -0.1514      3.4690
         4         0.0290      0.0370     -0.5060
         5        -0.0466     -0.0588      0.9411
         6         0.0061      0.0493     -0.3991
         7         0.0056      0.1791     -2.9858
         8        -0.0286      0.0077      0.3410
         9         0.0871     -0.0350     -0.7274
        10        -0.0639      0.1207     -1.6548
 Ground to excited state transition velocity quadrupole moments (Au):
       state          XX          YY          ZZ          XY          XZ          YZ
         1         1.1960     -0.0160     -0.0144      0.5492      0.0466      0.0142
         2        -3.8726     -0.0030      0.0184     -1.4579     -0.1093     -0.0041
         3        -1.4824      0.2688     -0.0332      0.7792      0.0412      0.0749
         4        -2.8401     -0.1907      0.0022     -1.5196     -0.0819      0.0165
         5         3.6052      0.3182      0.0056      1.8032      0.0888     -0.0192
         6        -0.2525     -0.1682      0.0029     -0.0502     -0.0504      0.0051
         7        -2.2545     -0.1895      0.0149     -0.3420     -0.0502     -0.0263
         8         0.2798      0.3043     -0.0039      0.0165      0.0016      0.0197
         9        -3.3500     -0.8140     -0.0122     -2.9859     -0.0817      0.0140
        10         4.3829     -0.6749      0.0461     -2.2027     -0.1930     -0.0814
 <0|del|b> * <b|rxdel|0> + <0|del|b> * <b|delr+rdel|0>
 Rotatory Strengths (R) in cgs (10**-40 erg-esu-cm/Gauss)
       state          XX          YY          ZZ    R(velocity)    E-M Angle
         1         9.9541     57.4637    -14.8664     17.5171       89.37
         2       -10.2394     78.4548    -59.3280      2.9625       89.94
         3        13.7715    134.7491     -0.6091     49.3038       88.89
         4        -4.2782    -18.7243     19.4903     -1.1707       90.47
         5       -13.3530    -14.7676     19.8210     -2.7665       90.44
         6       -10.0141     -2.2096     -0.0261     -4.0833       96.20
         7       -27.6706     32.7360    -49.6967    -14.8771       90.63
         8        -0.1398     -0.4860     -0.8283     -0.4847       93.34
         9        99.4423    -40.8271     96.9575     51.8576       81.35
        10       -15.6130     55.2595    -24.0225      5.2080       89.31
 1/2[<0|r|b>*<b|rxdel|0> + (<0|rxdel|b>*<b|r|0>)*]
 Rotatory Strengths (R) in cgs (10**-40 erg-esu-cm/Gauss)
       state          XX          YY          ZZ     R(length)
         1        31.3093    -49.9080     65.1084     15.5032
         2         1.5015   -250.1719    254.3495      1.8930
         3       128.4352     48.7157    -47.0176     43.3778
         4         5.8493    -30.3622     23.4389     -0.3580
         5         9.6144    -66.3117     51.1569     -1.8468
         6        -1.3751     -8.8008     -2.4112     -4.1957
         7        -7.3093    -83.0041     45.5351    -14.9261
         8        -0.7460      0.3500     -2.4600     -0.9520
         9        62.0749     42.1712     48.6203     50.9555
        10        36.5227     63.2083    -69.5873     10.0479
  1/2[<0|del|b>*<b|r|0> + (<0|r|b>*<b|del|0>)*] (Au)
       state          X           Y           Z        Dip. S.   Osc.(frdel)
         1        -0.5722     -0.0222     -0.0001      0.5945      0.3964
         2        -0.8143     -0.2439     -0.0009      1.0590      0.7060
         3        -0.9301     -0.0196     -0.0000      0.9498      0.6332
         4        -0.0066     -0.1378     -0.0004      0.1447      0.0965
         5        -0.0096     -0.2738     -0.0006      0.2840      0.1893
         6        -0.0116     -0.0074     -0.0000      0.0190      0.0127
         7        -0.3870     -0.0499     -0.0001      0.4369      0.2913
         8        -0.0003     -0.0006     -0.0000      0.0009      0.0006
         9        -0.1315     -0.3679     -0.0012      0.5005      0.3337
        10        -0.0848     -0.0720     -0.0006      0.1573      0.1049

 Excitation energies and oscillator strengths:
 
 Excited State   1:      Singlet-A      1.5482 eV  800.84 nm  f=0.4036  <S**2>=0.000
     202 -> 203        0.70488
 This state for optimization and/or second-order correction.
 Total Energy, E(TD-HF/TD-DFT) =  -3727.40054837    
 Copying the excited state density for this state as the 1-particle RhoCI density.
 
 Excited State   2:      Singlet-A      2.0859 eV  594.40 nm  f=0.7106  <S**2>=0.000
     201 -> 203        0.69604
 
 Excited State   3:      Singlet-A      2.6530 eV  467.34 nm  f=0.6393  <S**2>=0.000
     200 -> 203       -0.23992
     201 -> 204       -0.11113
     202 -> 204        0.60737
     202 -> 205       -0.20968
 
 Excited State   4:      Singlet-A      2.7710 eV  447.43 nm  f=0.0974  <S**2>=0.000
     200 -> 203        0.59349
     201 -> 205       -0.14583
     202 -> 204        0.29139
     202 -> 205        0.15957
 
 Excited State   5:      Singlet-A      2.9411 eV  421.56 nm  f=0.1898  <S**2>=0.000
     200 -> 203       -0.24632
     202 -> 204        0.12081
     202 -> 205        0.64070
 
 Excited State   6:      Singlet-A      3.1953 eV  388.02 nm  f=0.0129  <S**2>=0.000
     199 -> 203        0.69647
     201 -> 204        0.10040
 
 Excited State   7:      Singlet-A      3.2015 eV  387.27 nm  f=0.2977  <S**2>=0.000
     199 -> 203       -0.10434
     201 -> 204        0.66137
     202 -> 204        0.14208
 
 Excited State   8:      Singlet-A      3.3196 eV  373.49 nm  f=0.0005  <S**2>=0.000
     198 -> 203        0.56759
     200 -> 203        0.13357
     201 -> 205        0.33691
 
 Excited State   9:      Singlet-A      3.4476 eV  359.63 nm  f=0.3316  <S**2>=0.000
     194 -> 203        0.10442
     198 -> 203       -0.29811
     201 -> 205        0.52226
     202 -> 206       -0.29941
 
 Excited State  10:      Singlet-A      3.5497 eV  349.28 nm  f=0.1048  <S**2>=0.000
     191 -> 203       -0.10917
     192 -> 203       -0.10079
     194 -> 203        0.21386
     196 -> 203       -0.11319
     198 -> 203       -0.14129
     201 -> 205        0.17280
     202 -> 206        0.56876
 SavETr:  write IOETrn=   770 NScale= 10 NData=  16 NLR=1 NState=   10 LETran=     190.

 **********************************************************************

            Population analysis using the SCF Density.

 **********************************************************************

 Orbital symmetries:
       Occupied  (A) (A) (A) (A) (A) (A) (A) (A) (A) (A) (A) (A)
                 (A) (A) (A) (A) (A) (A) (A) (A) (A) (A) (A) (A)
                 (A) (A) (A) (A) (A) (A) (A) (A) (A) (A) (A) (A)
                 (A) (A) (A) (A) (A) (A) (A) (A) (A) (A) (A) (A)
                 (A) (A) (A) (A) (A) (A) (A) (A) (A) (A) (A) (A)
                 (A) (A) (A) (A) (A) (A) (A) (A) (A) (A) (A) (A)
                 (A) (A) (A) (A) (A) (A) (A) (A) (A) (A) (A) (A)
                 (A) (A) (A) (A) (A) (A) (A) (A) (A) (A) (A) (A)
                 (A) (A) (A) (A) (A) (A) (A) (A) (A) (A) (A) (A)
                 (A) (A) (A) (A) (A) (A) (A) (A) (A) (A) (A) (A)
                 (A) (A) (A) (A) (A) (A) (A) (A) (A) (A) (A) (A)
                 (A) (A) (A) (A) (A) (A) (A) (A) (A) (A) (A) (A)
                 (A) (A) (A) (A) (A) (A) (A) (A) (A) (A) (A) (A)
                 (A) (A) (A) (A) (A) (A) (A) (A) (A) (A) (A) (A)
                 (A) (A) (A) (A) (A) (A) (A) (A) (A) (A) (A) (A)
                 (A) (A) (A) (A) (A) (A) (A) (A) (A) (A) (A) (A)
                 (A) (A) (A) (A) (A) (A) (A) (A) (A) (A)
       Virtual   (A) (A) (A) (A) (A) (A) (A) (A) (A) (A) (A) (A)
                 (A) (A) (A) (A) (A) (A) (A) (A) (A) (A) (A) (A)
                 (A) (A) (A) (A) (A) (A) (A) (A) (A) (A) (A) (A)
                 (A) (A) (A) (A) (A) (A) (A) (A) (A) (A) (A) (A)
                 (A) (A) (A) (A) (A) (A) (A) (A) (A) (A) (A) (A)
                 (A) (A) (A) (A) (A) (A) (A) (A) (A) (A) (A) (A)
                 (A) (A) (A) (A) (A) (A) (A) (A) (A) (A) (A) (A)
                 (A) (A) (A) (A) (A) (A) (A) (A) (A) (A) (A) (A)
                 (A) (A) (A) (A) (A) (A) (A) (A) (A) (A) (A) (A)
                 (A) (A) (A) (A) (A) (A) (A) (A) (A) (A) (A) (A)
                 (A) (A) (A) (A) (A) (A) (A) (A) (A) (A) (A) (A)
                 (A) (A) (A) (A) (A) (A) (A) (A) (A) (A) (A) (A)
                 (A) (A) (A) (A) (A) (A) (A) (A) (A) (A) (A) (A)
                 (A) (A) (A) (A) (A) (A) (A) (A) (A) (A) (A) (A)
                 (A) (A) (A) (A) (A) (A) (A) (A) (A) (A) (A) (A)
                 (A) (A) (A) (A) (A) (A) (A) (A) (A) (A) (A) (A)
                 (A) (A) (A) (A) (A) (A) (A) (A) (A) (A) (A) (A)
                 (A) (A) (A) (A) (A) (A) (A) (A) (A) (A) (A) (A)
                 (A) (A) (A) (A) (A) (A) (A) (A) (A) (A) (A) (A)
                 (A) (A) (A) (A) (A) (A) (A) (A) (A) (A) (A) (A)
                 (A) (A) (A) (A) (A) (A) (A) (A) (A) (A) (A) (A)
                 (A) (A) (A) (A) (A) (A) (A) (A) (A) (A) (A) (A)
                 (A) (A) (A) (A) (A) (A) (A) (A) (A) (A) (A) (A)
                 (A) (A) (A) (A) (A) (A) (A) (A) (A) (A) (A) (A)
                 (A) (A) (A) (A) (A) (A) (A) (A) (A) (A) (A) (A)
                 (A) (A) (A) (A) (A) (A) (A) (A) (A) (A) (A) (A)
                 (A) (A) (A) (A) (A) (A) (A) (A) (A) (A) (A) (A)
                 (A) (A) (A) (A) (A) (A) (A) (A) (A) (A) (A) (A)
                 (A) (A) (A) (A) (A) (A) (A) (A) (A) (A) (A) (A)
                 (A) (A) (A) (A) (A) (A) (A) (A) (A) (A) (A) (A)
                 (A) (A) (A) (A) (A) (A) (A) (A) (A) (A) (A) (A)
                 (A) (A) (A) (A) (A) (A) (A) (A) (A) (A) (A) (A)
                 (A) (A) (A) (A) (A) (A) (A) (A) (A) (A) (A) (A)
                 (A) (A) (A) (A) (A) (A) (A) (A) (A) (A) (A) (A)
                 (A) (A) (A) (A) (A) (A) (A) (A) (A) (A) (A) (A)
                 (A) (A) (A) (A) (A) (A) (A) (A) (A) (A) (A) (A)
                 (A) (A) (A) (A) (A) (A) (A) (A) (A) (A) (A) (A)
                 (A) (A) (A) (A) (A) (A) (A) (A) (A) (A) (A) (A)
                 (A) (A) (A) (A) (A) (A) (A) (A) (A) (A) (A) (A)
                 (A) (A) (A) (A) (A) (A) (A) (A) (A) (A) (A) (A)
                 (A) (A) (A) (A) (A) (A) (A) (A) (A) (A) (A) (A)
                 (A) (A) (A) (A) (A) (A) (A) (A) (A) (A) (A) (A)
                 (A) (A) (A) (A) (A) (A) (A) (A) (A) (A) (A) (A)
                 (A) (A) (A) (A) (A) (A) (A) (A) (A) (A) (A) (A)
                 (A) (A) (A) (A) (A) (A) (A) (A) (A) (A) (A) (A)
                 (A) (A) (A) (A) (A) (A) (A) (A) (A) (A) (A) (A)
                 (A) (A) (A) (A) (A) (A) (A) (A) (A) (A) (A) (A)
                 (A) (A) (A) (A) (A) (A) (A) (A) (A) (A) (A) (A)
                 (A) (A) (A) (A) (A) (A) (A) (A) (A) (A) (A) (A)
                 (A) (A) (A) (A) (A) (A) (A) (A) (A) (A) (A) (A)
                 (A) (A) (A) (A) (A) (A) (A) (A) (A) (A) (A) (A)
                 (A) (A) (A) (A) (A) (A) (A) (A) (A) (A) (A) (A)
                 (A) (A) (A) (A) (A) (A) (A) (A) (A) (A) (A) (A)
                 (A) (A) (A) (A) (A) (A) (A) (A) (A) (A) (A) (A)
                 (A) (A) (A) (A) (A) (A) (A) (A) (A) (A) (A) (A)
                 (A) (A) (A) (A) (A) (A) (A) (A) (A) (A) (A) (A)
                 (A) (A) (A) (A) (A) (A) (A) (A) (A) (A) (A) (A)
                 (A) (A) (A) (A) (A) (A) (A) (A) (A) (A) (A) (A)
                 (A) (A) (A) (A) (A) (A) (A) (A) (A) (A) (A) (A)
                 (A) (A) (A) (A) (A) (A) (A) (A) (A) (A) (A) (A)
                 (A) (A) (A) (A) (A) (A) (A) (A) (A) (A) (A) (A)
                 (A) (A) (A) (A) (A) (A) (A) (A) (A) (A) (A) (A)
                 (A) (A) (A) (A) (A) (A) (A) (A) (A) (A) (A) (A)
                 (A) (A) (A) (A) (A) (A) (A) (A) (A) (A) (A) (A)
                 (A) (A) (A) (A) (A) (A) (A) (A) (A) (A) (A) (A)
                 (A) (A) (A) (A) (A) (A) (A) (A) (A) (A) (A) (A)
                 (A) (A) (A) (A) (A) (A) (A) (A) (A) (A) (A) (A)
                 (A) (A) (A) (A) (A) (A) (A) (A) (A) (A) (A) (A)
                 (A) (A) (A) (A) (A) (A) (A) (A) (A) (A) (A) (A)
                 (A) (A) (A) (A) (A) (A) (A) (A) (A) (A) (A) (A)
                 (A) (A) (A) (A) (A) (A) (A) (A) (A) (A) (A) (A)
                 (A) (A) (A) (A) (A) (A) (A) (A) (A) (A) (A) (A)
                 (A) (A) (A) (A) (A) (A) (A) (A) (A) (A) (A) (A)
                 (A) (A) (A) (A) (A) (A) (A) (A) (A) (A) (A) (A)
                 (A) (A) (A) (A) (A) (A) (A) (A) (A) (A) (A) (A)
                 (A) (A) (A) (A) (A) (A) (A) (A) (A) (A) (A) (A)
                 (A) (A) (A) (A) (A) (A) (A) (A) (A) (A) (A) (A)
                 (A) (A) (A) (A) (A) (A) (A) (A) (A) (A) (A) (A)
                 (A) (A) (A) (A) (A) (A) (A) (A) (A) (A) (A) (A)
                 (A) (A) (A) (A) (A) (A) (A) (A) (A) (A) (A) (A)
                 (A) (A) (A) (A) (A) (A) (A) (A) (A) (A)
 The electronic state is 1-A.
 Alpha  occ. eigenvalues --  -89.12383 -89.06450 -89.06321 -89.05433 -19.25269
 Alpha  occ. eigenvalues --  -19.23893 -19.23770 -19.19323 -14.43677 -14.43423
 Alpha  occ. eigenvalues --  -14.41951 -14.37768 -10.36486 -10.30208 -10.29983
 Alpha  occ. eigenvalues --  -10.29261 -10.29193 -10.29097 -10.28617 -10.28599
 Alpha  occ. eigenvalues --  -10.28403 -10.28297 -10.28056 -10.28044 -10.27906
 Alpha  occ. eigenvalues --  -10.27684 -10.27615 -10.27537 -10.27227 -10.26902
 Alpha  occ. eigenvalues --  -10.26830 -10.26756 -10.26123 -10.26109 -10.25686
 Alpha  occ. eigenvalues --  -10.24782 -10.24659 -10.24557 -10.24417 -10.24361
 Alpha  occ. eigenvalues --  -10.23951 -10.23439 -10.23420 -10.23411 -10.23405
 Alpha  occ. eigenvalues --  -10.23374 -10.23372 -10.23319 -10.23300 -10.23210
 Alpha  occ. eigenvalues --  -10.22948 -10.22834 -10.22782 -10.22742  -8.10408
 Alpha  occ. eigenvalues --   -8.04835  -8.04695  -8.03811  -6.04192  -6.03614
 Alpha  occ. eigenvalues --   -6.03396  -5.98519  -5.98378  -5.98151  -5.98010
 Alpha  occ. eigenvalues --   -5.97784  -5.97646  -5.97490  -5.97124  -5.96771
 Alpha  occ. eigenvalues --   -1.14682  -1.10360  -1.10247  -1.07059  -1.05465
 Alpha  occ. eigenvalues --   -1.00012  -0.94618  -0.94120  -0.93793  -0.92991
 Alpha  occ. eigenvalues --   -0.91680  -0.90670  -0.89143  -0.89083  -0.87240
 Alpha  occ. eigenvalues --   -0.86522  -0.83041  -0.81470  -0.80735  -0.79774
 Alpha  occ. eigenvalues --   -0.79532  -0.78674  -0.78420  -0.78288  -0.77784
 Alpha  occ. eigenvalues --   -0.77142  -0.76977  -0.76099  -0.75592  -0.73314
 Alpha  occ. eigenvalues --   -0.72886  -0.71366  -0.70152  -0.68064  -0.67052
 Alpha  occ. eigenvalues --   -0.66024  -0.65439  -0.65238  -0.64397  -0.63925
 Alpha  occ. eigenvalues --   -0.63572  -0.62352  -0.61905  -0.61451  -0.59976
 Alpha  occ. eigenvalues --   -0.58688  -0.57722  -0.56619  -0.56514  -0.56379
 Alpha  occ. eigenvalues --   -0.56124  -0.55424  -0.54973  -0.54670  -0.54561
 Alpha  occ. eigenvalues --   -0.53696  -0.52718  -0.51699  -0.51531  -0.51425
 Alpha  occ. eigenvalues --   -0.50445  -0.50331  -0.49493  -0.49177  -0.49076
 Alpha  occ. eigenvalues --   -0.49052  -0.47913  -0.47824  -0.47561  -0.47044
 Alpha  occ. eigenvalues --   -0.46861  -0.46561  -0.45578  -0.44979  -0.44915
 Alpha  occ. eigenvalues --   -0.44519  -0.44396  -0.44308  -0.44099  -0.44000
 Alpha  occ. eigenvalues --   -0.43690  -0.43473  -0.43136  -0.42810  -0.42616
 Alpha  occ. eigenvalues --   -0.42569  -0.41794  -0.41448  -0.41036  -0.40882
 Alpha  occ. eigenvalues --   -0.40773  -0.40464  -0.40323  -0.40256  -0.40203
 Alpha  occ. eigenvalues --   -0.39438  -0.39230  -0.38889  -0.38512  -0.38153
 Alpha  occ. eigenvalues --   -0.38058  -0.37846  -0.37751  -0.37066  -0.37013
 Alpha  occ. eigenvalues --   -0.36294  -0.35579  -0.35326  -0.35020  -0.34870
 Alpha  occ. eigenvalues --   -0.34672  -0.34562  -0.34446  -0.34235  -0.33143
 Alpha  occ. eigenvalues --   -0.32794  -0.31939  -0.30554  -0.30223  -0.29630
 Alpha  occ. eigenvalues --   -0.28609  -0.28255  -0.28040  -0.27942  -0.27406
 Alpha  occ. eigenvalues --   -0.27326  -0.26995  -0.25946  -0.24816  -0.23807
 Alpha  occ. eigenvalues --   -0.21105  -0.18903
 Alpha virt. eigenvalues --   -0.12303  -0.07621  -0.07158  -0.04220  -0.02607
 Alpha virt. eigenvalues --   -0.01795  -0.01260  -0.00815  -0.00661  -0.00379
 Alpha virt. eigenvalues --   -0.00213  -0.00044   0.00776   0.02207   0.02335
 Alpha virt. eigenvalues --    0.02791   0.02960   0.03523   0.04757   0.04849
 Alpha virt. eigenvalues --    0.05224   0.05305   0.05342   0.05524   0.05784
 Alpha virt. eigenvalues --    0.06184   0.06576   0.06715   0.07267   0.07469
 Alpha virt. eigenvalues --    0.08027   0.08318   0.08625   0.09003   0.09174
 Alpha virt. eigenvalues --    0.09394   0.09731   0.10293   0.11008   0.11226
 Alpha virt. eigenvalues --    0.11301   0.11527   0.11710   0.11908   0.11993
 Alpha virt. eigenvalues --    0.12114   0.12525   0.13058   0.13266   0.13671
 Alpha virt. eigenvalues --    0.13861   0.14255   0.14570   0.14634   0.14870
 Alpha virt. eigenvalues --    0.15118   0.15308   0.15763   0.16134   0.16299
 Alpha virt. eigenvalues --    0.16823   0.16899   0.17843   0.18016   0.18187
 Alpha virt. eigenvalues --    0.18460   0.18553   0.19177   0.19515   0.19865
 Alpha virt. eigenvalues --    0.20795   0.21223   0.21665   0.21785   0.21918
 Alpha virt. eigenvalues --    0.22244   0.23202   0.23853   0.23955   0.24154
 Alpha virt. eigenvalues --    0.24290   0.24531   0.24675   0.25021   0.25808
 Alpha virt. eigenvalues --    0.26197   0.26654   0.26857   0.27268   0.28415
 Alpha virt. eigenvalues --    0.28948   0.29323   0.29385   0.29999   0.30415
 Alpha virt. eigenvalues --    0.31302   0.31395   0.31548   0.31634   0.31845
 Alpha virt. eigenvalues --    0.31990   0.32157   0.32326   0.32511   0.32960
 Alpha virt. eigenvalues --    0.33361   0.33421   0.33949   0.34221   0.34614
 Alpha virt. eigenvalues --    0.34894   0.35433   0.35872   0.36441   0.36800
 Alpha virt. eigenvalues --    0.36910   0.37229   0.37430   0.37813   0.37989
 Alpha virt. eigenvalues --    0.38326   0.38658   0.38792   0.39050   0.39082
 Alpha virt. eigenvalues --    0.39207   0.39440   0.39678   0.39893   0.40215
 Alpha virt. eigenvalues --    0.40357   0.40480   0.40705   0.40992   0.41068
 Alpha virt. eigenvalues --    0.41133   0.41463   0.41572   0.41802   0.41989
 Alpha virt. eigenvalues --    0.42124   0.42379   0.42449   0.42541   0.42733
 Alpha virt. eigenvalues --    0.43017   0.43173   0.43734   0.43813   0.43857
 Alpha virt. eigenvalues --    0.44095   0.44579   0.44690   0.44859   0.45186
 Alpha virt. eigenvalues --    0.45299   0.45745   0.45768   0.45909   0.46083
 Alpha virt. eigenvalues --    0.46310   0.46918   0.47354   0.47626   0.47809
 Alpha virt. eigenvalues --    0.47913   0.48447   0.49075   0.49258   0.49425
 Alpha virt. eigenvalues --    0.49621   0.50176   0.50427   0.50710   0.50910
 Alpha virt. eigenvalues --    0.50972   0.51690   0.51988   0.52192   0.52294
 Alpha virt. eigenvalues --    0.52317   0.52454   0.52741   0.53154   0.53240
 Alpha virt. eigenvalues --    0.53439   0.53950   0.54131   0.54454   0.55200
 Alpha virt. eigenvalues --    0.55610   0.55733   0.55927   0.56230   0.56487
 Alpha virt. eigenvalues --    0.56685   0.56957   0.57193   0.58063   0.58129
 Alpha virt. eigenvalues --    0.58605   0.58944   0.59132   0.59319   0.59688
 Alpha virt. eigenvalues --    0.59929   0.60014   0.60112   0.60134   0.60339
 Alpha virt. eigenvalues --    0.60771   0.60841   0.61315   0.61347   0.61958
 Alpha virt. eigenvalues --    0.62310   0.62346   0.62632   0.62801   0.63113
 Alpha virt. eigenvalues --    0.63243   0.63345   0.63723   0.63911   0.64187
 Alpha virt. eigenvalues --    0.64589   0.65055   0.65267   0.65405   0.65679
 Alpha virt. eigenvalues --    0.65769   0.66178   0.66520   0.66626   0.67209
 Alpha virt. eigenvalues --    0.67410   0.67571   0.68007   0.68164   0.68324
 Alpha virt. eigenvalues --    0.68419   0.68563   0.68733   0.69206   0.69413
 Alpha virt. eigenvalues --    0.69844   0.70247   0.70485   0.70756   0.71557
 Alpha virt. eigenvalues --    0.71735   0.72021   0.72138   0.72360   0.72567
 Alpha virt. eigenvalues --    0.73400   0.74093   0.74347   0.75021   0.75330
 Alpha virt. eigenvalues --    0.75832   0.75949   0.76570   0.76859   0.77276
 Alpha virt. eigenvalues --    0.77826   0.78304   0.78638   0.79178   0.79426
 Alpha virt. eigenvalues --    0.79628   0.79851   0.80243   0.80378   0.80554
 Alpha virt. eigenvalues --    0.80602   0.80770   0.81324   0.81346   0.82073
 Alpha virt. eigenvalues --    0.82326   0.82618   0.82885   0.82968   0.83153
 Alpha virt. eigenvalues --    0.83277   0.83503   0.83706   0.84032   0.84229
 Alpha virt. eigenvalues --    0.84463   0.85279   0.85394   0.85445   0.85792
 Alpha virt. eigenvalues --    0.85988   0.86786   0.86933   0.87093   0.87790
 Alpha virt. eigenvalues --    0.88338   0.88492   0.88530   0.88879   0.89142
 Alpha virt. eigenvalues --    0.89429   0.89770   0.90342   0.90651   0.90833
 Alpha virt. eigenvalues --    0.91189   0.91461   0.91930   0.92453   0.92604
 Alpha virt. eigenvalues --    0.92804   0.93280   0.93382   0.93699   0.94137
 Alpha virt. eigenvalues --    0.94320   0.95304   0.95502   0.96054   0.96210
 Alpha virt. eigenvalues --    0.96481   0.96922   0.97149   0.97306   0.97687
 Alpha virt. eigenvalues --    0.97919   0.98636   0.99015   0.99329   0.99504
 Alpha virt. eigenvalues --    0.99688   0.99929   1.00028   1.00479   1.01723
 Alpha virt. eigenvalues --    1.02203   1.02577   1.02795   1.03351   1.03633
 Alpha virt. eigenvalues --    1.03708   1.04093   1.04289   1.04384   1.04868
 Alpha virt. eigenvalues --    1.05013   1.05107   1.05200   1.06183   1.06608
 Alpha virt. eigenvalues --    1.07036   1.07245   1.07593   1.08119   1.08403
 Alpha virt. eigenvalues --    1.09004   1.09226   1.09678   1.10080   1.10437
 Alpha virt. eigenvalues --    1.10992   1.11132   1.12066   1.12805   1.13031
 Alpha virt. eigenvalues --    1.13139   1.13220   1.13377   1.13646   1.14323
 Alpha virt. eigenvalues --    1.14787   1.16096   1.16271   1.16636   1.17010
 Alpha virt. eigenvalues --    1.17196   1.18103   1.19726   1.20625   1.21680
 Alpha virt. eigenvalues --    1.22114   1.23326   1.23749   1.24273   1.24762
 Alpha virt. eigenvalues --    1.25085   1.25354   1.25399   1.25429   1.26127
 Alpha virt. eigenvalues --    1.26663   1.27464   1.28093   1.28522   1.29077
 Alpha virt. eigenvalues --    1.29434   1.30476   1.30508   1.32495   1.33349
 Alpha virt. eigenvalues --    1.33969   1.34229   1.35327   1.36017   1.36180
 Alpha virt. eigenvalues --    1.36775   1.37398   1.37882   1.38165   1.39597
 Alpha virt. eigenvalues --    1.39929   1.40410   1.40659   1.41532   1.41615
 Alpha virt. eigenvalues --    1.42687   1.43540   1.43583   1.43695   1.43886
 Alpha virt. eigenvalues --    1.44743   1.45166   1.45214   1.46375   1.46869
 Alpha virt. eigenvalues --    1.46919   1.47195   1.47573   1.47634   1.47782
 Alpha virt. eigenvalues --    1.48104   1.48880   1.49077   1.49112   1.49427
 Alpha virt. eigenvalues --    1.49808   1.49878   1.50140   1.51147   1.51527
 Alpha virt. eigenvalues --    1.52104   1.52452   1.53106   1.53755   1.53816
 Alpha virt. eigenvalues --    1.53953   1.54789   1.54952   1.55260   1.55371
 Alpha virt. eigenvalues --    1.55678   1.55750   1.56630   1.56850   1.56983
 Alpha virt. eigenvalues --    1.57333   1.57642   1.58084   1.58510   1.58686
 Alpha virt. eigenvalues --    1.59053   1.59368   1.59580   1.59867   1.59932
 Alpha virt. eigenvalues --    1.60066   1.60155   1.60686   1.61127   1.61556
 Alpha virt. eigenvalues --    1.62020   1.62269   1.62378   1.62754   1.62831
 Alpha virt. eigenvalues --    1.63406   1.64504   1.65283   1.65769   1.66294
 Alpha virt. eigenvalues --    1.66954   1.67114   1.67358   1.67503   1.67821
 Alpha virt. eigenvalues --    1.67977   1.68435   1.68717   1.69317   1.69568
 Alpha virt. eigenvalues --    1.70248   1.70415   1.70660   1.70861   1.71108
 Alpha virt. eigenvalues --    1.71893   1.72469   1.73215   1.73799   1.73876
 Alpha virt. eigenvalues --    1.74108   1.74422   1.74554   1.75027   1.75464
 Alpha virt. eigenvalues --    1.75615   1.75849   1.76660   1.77575   1.77730
 Alpha virt. eigenvalues --    1.77946   1.78069   1.78274   1.78630   1.79005
 Alpha virt. eigenvalues --    1.79253   1.79686   1.80738   1.81454   1.82476
 Alpha virt. eigenvalues --    1.82689   1.83743   1.83937   1.84366   1.84943
 Alpha virt. eigenvalues --    1.85842   1.85889   1.86209   1.86495   1.86792
 Alpha virt. eigenvalues --    1.86898   1.87136   1.87480   1.88513   1.88704
 Alpha virt. eigenvalues --    1.88918   1.89804   1.90316   1.90690   1.91266
 Alpha virt. eigenvalues --    1.91476   1.91603   1.91924   1.92508   1.92915
 Alpha virt. eigenvalues --    1.93196   1.93324   1.94151   1.94472   1.94636
 Alpha virt. eigenvalues --    1.95038   1.95367   1.95617   1.96073   1.96429
 Alpha virt. eigenvalues --    1.97492   1.97564   1.97676   1.97999   1.98435
 Alpha virt. eigenvalues --    1.99213   1.99765   1.99882   2.00673   2.01325
 Alpha virt. eigenvalues --    2.01409   2.01846   2.01961   2.02431   2.02688
 Alpha virt. eigenvalues --    2.03079   2.03238   2.03833   2.03889   2.04482
 Alpha virt. eigenvalues --    2.05465   2.05926   2.06219   2.06415   2.07279
 Alpha virt. eigenvalues --    2.07929   2.08110   2.08206   2.08738   2.09218
 Alpha virt. eigenvalues --    2.09440   2.09634   2.10280   2.10587   2.10983
 Alpha virt. eigenvalues --    2.11871   2.12221   2.12498   2.12581   2.12938
 Alpha virt. eigenvalues --    2.13672   2.14016   2.14120   2.15682   2.16963
 Alpha virt. eigenvalues --    2.18677   2.19053   2.19650   2.20152   2.21072
 Alpha virt. eigenvalues --    2.21454   2.22111   2.22861   2.23325   2.23898
 Alpha virt. eigenvalues --    2.24163   2.25855   2.27125   2.28797   2.29346
 Alpha virt. eigenvalues --    2.29468   2.29696   2.30451   2.31039   2.32051
 Alpha virt. eigenvalues --    2.32204   2.32662   2.34280   2.34741   2.34769
 Alpha virt. eigenvalues --    2.34977   2.35289   2.35624   2.35898   2.36357
 Alpha virt. eigenvalues --    2.36926   2.37132   2.37599   2.39152   2.39878
 Alpha virt. eigenvalues --    2.40788   2.41458   2.41647   2.41892   2.42121
 Alpha virt. eigenvalues --    2.42364   2.43374   2.43799   2.46478   2.46863
 Alpha virt. eigenvalues --    2.46910   2.47017   2.48451   2.49133   2.50042
 Alpha virt. eigenvalues --    2.51027   2.51380   2.51724   2.51781   2.53323
 Alpha virt. eigenvalues --    2.53414   2.54277   2.54792   2.55800   2.56773
 Alpha virt. eigenvalues --    2.57210   2.57435   2.57489   2.57635   2.59590
 Alpha virt. eigenvalues --    2.60509   2.60959   2.61328   2.61436   2.61821
 Alpha virt. eigenvalues --    2.61905   2.62291   2.62346   2.62968   2.63196
 Alpha virt. eigenvalues --    2.63709   2.63885   2.64014   2.64160   2.64465
 Alpha virt. eigenvalues --    2.64489   2.65126   2.65321   2.65520   2.66521
 Alpha virt. eigenvalues --    2.66703   2.67122   2.67679   2.67688   2.68298
 Alpha virt. eigenvalues --    2.68408   2.68454   2.69176   2.69407   2.69624
 Alpha virt. eigenvalues --    2.70053   2.70350   2.70462   2.71124   2.71405
 Alpha virt. eigenvalues --    2.72031   2.72246   2.72470   2.72727   2.72894
 Alpha virt. eigenvalues --    2.73901   2.74051   2.74400   2.74850   2.76112
 Alpha virt. eigenvalues --    2.76576   2.76581   2.77134   2.78277   2.78384
 Alpha virt. eigenvalues --    2.78968   2.79446   2.79984   2.80805   2.81006
 Alpha virt. eigenvalues --    2.81943   2.82672   2.82791   2.84184   2.84719
 Alpha virt. eigenvalues --    2.84904   2.85701   2.86456   2.86949   2.87067
 Alpha virt. eigenvalues --    2.88741   2.88885   2.89402   2.89458   2.89769
 Alpha virt. eigenvalues --    2.90290   2.90751   2.91708   2.92438   2.93820
 Alpha virt. eigenvalues --    2.94450   2.94834   2.94895   2.95161   2.95768
 Alpha virt. eigenvalues --    2.96809   2.96984   2.97315   2.97425   2.99039
 Alpha virt. eigenvalues --    2.99165   3.01097   3.01199   3.01321   3.02979
 Alpha virt. eigenvalues --    3.03362   3.04304   3.04527   3.04853   3.05265
 Alpha virt. eigenvalues --    3.05390   3.06130   3.07800   3.08434   3.08722
 Alpha virt. eigenvalues --    3.09764   3.10275   3.10459   3.12529   3.12768
 Alpha virt. eigenvalues --    3.13996   3.14872   3.15361   3.15811   3.16063
 Alpha virt. eigenvalues --    3.18832   3.19316   3.19578   3.20284   3.20958
 Alpha virt. eigenvalues --    3.22208   3.22389   3.23706   3.24433   3.25043
 Alpha virt. eigenvalues --    3.25288   3.25854   3.27426   3.28583   3.30381
 Alpha virt. eigenvalues --    3.30730   3.32850   3.34350   3.34537   3.34853
 Alpha virt. eigenvalues --    3.35052   3.36511   3.36827   3.37196   3.38762
 Alpha virt. eigenvalues --    3.39097   3.40049   3.40278   3.40878   3.42307
 Alpha virt. eigenvalues --    3.43048   3.44303   3.45133   3.46550   3.47332
 Alpha virt. eigenvalues --    3.48539   3.50330   3.51814   3.52516   3.53032
 Alpha virt. eigenvalues --    3.53797   3.55482   3.57400   3.57794   3.58667
 Alpha virt. eigenvalues --    3.59229   3.61257   3.61455   3.63000   3.63446
 Alpha virt. eigenvalues --    3.64075   3.64086   3.68173   3.71726   3.76658
 Alpha virt. eigenvalues --    3.77108   3.77455   3.77608   3.78372   3.78633
 Alpha virt. eigenvalues --    3.80766   3.81079   3.81875   3.84749   3.86544
 Alpha virt. eigenvalues --    3.89436   3.90498   3.92118   3.92591   3.94951
 Alpha virt. eigenvalues --    3.98179   3.99206   4.00132   4.01703   4.02192
 Alpha virt. eigenvalues --    4.06548   4.07950   4.08157   4.08416   4.12201
 Alpha virt. eigenvalues --    4.12745   4.13281   4.13574   4.13807   4.14573
 Alpha virt. eigenvalues --    4.15896   4.16232   4.17023   4.18006   4.19314
 Alpha virt. eigenvalues --    4.19802   4.20087   4.21006   4.22411   4.37680
 Alpha virt. eigenvalues --    4.43509   4.52682   4.56129   4.64651   4.66316
 Alpha virt. eigenvalues --    4.75514   4.80638   4.82402   4.84322   4.86441
 Alpha virt. eigenvalues --    4.86839   4.86958   4.93550   4.93687   4.94645
 Alpha virt. eigenvalues --    5.07239   5.07985   5.16369   5.31638   5.31786
 Alpha virt. eigenvalues --    5.34448   5.63261   5.80345   5.80897   5.81178
 Alpha virt. eigenvalues --    7.81134   7.83915   7.85884   7.86717  17.21158
 Alpha virt. eigenvalues --   17.27803  17.29148  17.30747  17.37609  17.40637
 Alpha virt. eigenvalues --   17.53219  17.53740  17.56094  17.58094  17.60402
 Alpha virt. eigenvalues --   17.60778  23.51305  23.57234  23.60150  23.62305
 Alpha virt. eigenvalues --   23.66098  23.72189  23.76956  23.82889  23.86964
 Alpha virt. eigenvalues --   23.88978  23.92479  23.95074  23.96005  23.96144
 Alpha virt. eigenvalues --   23.96494  23.98958  23.99562  24.00126  24.01855
 Alpha virt. eigenvalues --   24.02005  24.03336  24.03468  24.04064  24.11347
 Alpha virt. eigenvalues --   24.12180  24.12731  24.13885  24.14393  24.14517
 Alpha virt. eigenvalues --   24.16485  24.21043  24.21395  24.21484  24.21722
 Alpha virt. eigenvalues --   24.22554  24.23252  24.23647  24.24863  24.27671
 Alpha virt. eigenvalues --   24.27951  24.28318  24.53621  35.58270  35.71136
 Alpha virt. eigenvalues --   35.75992  35.95381  49.98149  50.04595  50.04727
 Alpha virt. eigenvalues --   50.13718 189.12206 189.13645 189.17262 189.17804
          Condensed to atoms (all electrons):
 Mulliken charges:
               1
     1  C   -0.178158
     2  O   -0.358005
     3  C    0.180751
     4  C   -0.140041
     5  C   -0.070528
     6  C    0.052679
     7  N   -0.551483
     8  C    0.199888
     9  C   -0.120388
    10  C   -0.050783
    11  C    0.002788
    12  C   -0.113225
    13  C   -0.119833
    14  H    0.131973
    15  H    0.113506
    16  C   -0.289965
    17  S    0.340864
    18  C   -0.263604
    19  C   -0.014832
    20  C   -0.060697
    21  H    0.109440
    22  H    0.107808
    23  C   -0.248155
    24  S    0.354201
    25  C   -0.268370
    26  C   -0.017931
    27  C   -0.029961
    28  H    0.111535
    29  H    0.111961
    30  C   -0.244813
    31  C   -0.022786
    32  C   -0.014633
    33  C   -0.314699
    34  S    0.366435
    35  C    0.142412
    36  C   -0.143250
    37  C   -0.037672
    38  C   -0.082321
    39  C    0.148787
    40  C    0.170954
    41  N   -0.545963
    42  S    0.572040
    43  N   -0.515120
    44  C    0.109002
    45  C   -0.214783
    46  C    0.108243
    47  N   -0.280782
    48  C    0.468111
    49  O   -0.348129
    50  H    0.266014
    51  O   -0.329844
    52  H    0.158418
    53  H    0.143284
    54  H    0.119338
    55  H    0.141687
    56  H    0.111049
    57  H    0.102842
    58  H    0.130968
    59  C    0.053712
    60  C   -0.070257
    61  C   -0.140085
    62  C    0.180395
    63  C   -0.096737
    64  C   -0.066771
    65  H    0.120498
    66  H    0.117945
    67  O   -0.358877
    68  C   -0.178074
    69  H    0.127427
    70  H    0.126805
    71  H    0.144291
    72  H    0.121330
    73  H    0.117307
    74  C   -0.066177
    75  C   -0.095926
    76  H    0.119328
    77  H    0.120872
    78  H    0.116560
    79  H    0.121217
    80  H    0.144977
    81  H    0.127839
    82  H    0.126175
 Sum of Mulliken charges =  -0.00000
 Mulliken charges with hydrogens summed into heavy atoms:
               1
     1  C    0.220833
     2  O   -0.358005
     3  C    0.180751
     4  C   -0.018825
     5  C    0.046032
     6  C    0.052679
     7  N   -0.551483
     8  C    0.199888
     9  C    0.010580
    10  C    0.052060
    11  C    0.002788
    12  C    0.000280
    13  C    0.012140
    16  C   -0.289965
    17  S    0.340864
    18  C   -0.263604
    19  C    0.092976
    20  C    0.048743
    23  C   -0.248155
    24  S    0.354201
    25  C   -0.268370
    26  C    0.094030
    27  C    0.081574
    30  C   -0.244813
    31  C    0.088263
    32  C    0.127053
    33  C   -0.314699
    34  S    0.366435
    35  C    0.142412
    36  C   -0.023912
    37  C    0.105612
    38  C   -0.082321
    39  C    0.148787
    40  C    0.170954
    41  N   -0.545963
    42  S    0.572040
    43  N   -0.515120
    44  C    0.267420
    45  C   -0.214783
    46  C    0.108243
    47  N   -0.280782
    48  C    0.468111
    49  O   -0.082115
    51  O   -0.329844
    59  C    0.053712
    60  C    0.047050
    61  C   -0.018755
    62  C    0.180395
    63  C    0.021208
    64  C    0.053727
    67  O   -0.358877
    68  C    0.220449
    74  C    0.054695
    75  C    0.023402
 Electronic spatial extent (au):  <R**2>=         109328.7636
 Charge=              0.0000 electrons
 Dipole moment (field-independent basis, Debye):
    X=             -7.0730    Y=             -5.7186    Z=             -0.2301  Tot=              9.0985
 Quadrupole moment (field-independent basis, Debye-Ang):
   XX=           -241.4893   YY=           -333.1865   ZZ=           -338.1402
   XY=            -69.3600   XZ=             -7.3028   YZ=             -7.2635
 Traceless Quadrupole moment (field-independent basis, Debye-Ang):
   XX=             62.7827   YY=            -28.9145   ZZ=            -33.8682
   XY=            -69.3600   XZ=             -7.3028   YZ=             -7.2635
 Octapole moment (field-independent basis, Debye-Ang**2):
  XXX=           -658.6219  YYY=           -250.2954  ZZZ=              6.9828  XYY=           -429.7928
  XXY=           -105.8683  XXZ=            154.1278  XZZ=            -62.4618  YZZ=             55.0843
  YYZ=            -76.9348  XYZ=             76.2237
 Hexadecapole moment (field-independent basis, Debye-Ang**3):
 XXXX=        -101963.5375 YYYY=         -19202.8781 ZZZZ=           -950.3959 XXXY=          -3294.6559
 XXXZ=          -2293.8796 YYYX=          -3883.8600 YYYZ=           -391.4342 ZZZX=              8.5498
 ZZZY=            -26.8368 XXYY=         -24950.9845 XXZZ=         -21079.9343 YYZZ=          -3405.3552
 XXYZ=           -720.1231 YYXZ=            399.9058 ZZXY=             16.0242
 N-N= 6.545177224252D+03 E-N=-2.184963736211D+04  KE= 3.717233106506D+03
 1\1\GINC-CN113\SP\RPBE1PBE TD-FC\6-311G(d,p)\C42H28N4O4S4\R2532\08-Jul
 -2021\0\\#N TD(NStates=10) PBE1PBE/6-311G(d,p)\\Name\\0,1\C,0,-8.18248
 7,7.128568,-1.105953\O,0,-7.424227,6.34312,-0.197444\C,0,-7.594299,4.9
 90534,-0.210206\C,0,-8.469618,4.30292,-1.054202\C,0,-8.556066,2.912758
 ,-0.98279\C,0,-7.794556,2.189376,-0.065242\N,0,-7.914267,0.769334,0.02
 0459\C,0,-6.774216,-0.050771,0.00591\C,0,-6.768593,-1.297194,0.659475\
 C,0,-5.644102,-2.104499,0.641031\C,0,-4.467692,-1.716233,-0.024144\C,0
 ,-4.478614,-0.467096,-0.667243\C,0,-5.599876,0.346473,-0.658344\H,0,-5
 .576908,1.293575,-1.181667\H,0,-3.602711,-0.138034,-1.21567\C,0,-3.298
 009,-2.590422,-0.040351\S,0,-1.679247,-1.948306,-0.237981\C,0,-0.95646
 7,-3.542922,-0.138653\C,0,-1.93757,-4.494386,0.044753\C,0,-3.244337,-3
 .961437,0.093471\H,0,-4.130751,-4.57135,0.204916\H,0,-1.716499,-5.548,
 0.153267\C,0,0.46609,-3.755461,-0.253515\S,0,1.625967,-2.48934,0.09096
 \C,0,2.982405,-3.542881,-0.26359\C,0,2.52668,-4.8025,-0.6028\C,0,1.123
 658,-4.920823,-0.59969\H,0,0.598595,-5.824193,-0.878894\H,0,3.192024,-
 5.607489,-0.884805\C,0,4.348203,-3.095277,-0.180959\C,0,5.489847,-3.87
 575,-0.107659\C,0,6.681322,-3.134897,-0.049206\C,0,6.495056,-1.761727,
 -0.065502\S,0,4.773393,-1.400692,-0.18014\C,0,7.47084,-0.700054,-0.004
 172\C,0,7.110588,0.645469,0.018098\C,0,8.027128,1.709041,0.075048\C,0,
 9.404895,1.522915,0.11638\C,0,9.839338,0.149149,0.096587\C,0,8.893835,
 -0.951326,0.03749\N,0,9.486622,-2.145534,0.026726\S,0,11.103043,-1.887
 273,0.087207\N,0,11.109838,-0.25003,0.128721\C,0,10.416144,2.547404,0.
 177016\C,0,10.318038,3.907627,0.206239\C,0,9.086736,4.624554,0.179205\
 N,0,8.074009,5.181561,0.156275\C,0,11.527344,4.770239,0.270304\O,0,12.
 682594,4.060852,0.295141\H,0,13.395218,4.714294,0.336154\O,0,11.502773
 ,5.975544,0.297992\H,0,11.429221,2.163911,0.203953\H,0,7.621846,2.7107
 97,0.088106\H,0,6.059098,0.905844,-0.006957\H,0,7.6642,-3.57476,0.0164
 47\H,0,5.457693,-4.956156,-0.073146\H,0,-5.665615,-3.041239,1.185874\H
 ,0,-7.649607,-1.620623,1.198724\C,0,-9.220243,0.201134,0.115168\C,0,-1
 0.139608,0.682707,1.047013\C,0,-11.428031,0.154911,1.127792\C,0,-11.80
 8286,-0.887709,0.279495\C,0,-10.887142,-1.380914,-0.653708\C,0,-9.6166
 49,-0.837159,-0.741459\H,0,-8.917672,-1.217857,-1.476612\H,0,-11.19929
 1,-2.182431,-1.312207\O,0,-13.035193,-1.482953,0.276218\C,0,-14.013089
 ,-1.020418,1.196578\H,0,-13.687246,-1.158105,2.2338\H,0,-14.254822,0.0
 35405,1.029631\H,0,-14.900545,-1.624742,1.016261\H,0,-12.114575,0.5578
 14,1.860159\H,0,-9.849997,1.486332,1.713561\C,0,-6.927688,2.890499,0.7
 86592\C,0,-6.820574,4.268759,0.708116\H,0,-6.152769,4.81606,1.362263\H
 ,0,-6.334436,2.344841,1.510642\H,0,-9.232054,2.385586,-1.645441\H,0,-9
 .078993,4.830121,-1.775834\H,0,-7.894368,8.161501,-0.918177\H,0,-7.953
 658,6.873436,-2.14684\H,0,-9.258874,7.01634,-0.932988\\Version=ES64L-G
 16RevB.01\State=1-A\HF=-3727.4574428\RMSD=2.721e-09\PG=C01 [X(C42H28N4
 O4S4)]\\@


     "IF I COULD JUST GET IT ON PAPER"
 LIFE AND INK, THEY RUN OUT AT THE SAME TIME,
 OR SO SAID MY OLD FRIEND THE SQUID.
     -- JIMMY BUFFETT, 1981
 Job cpu time:       0 days  4 hours 34 minutes  2.4 seconds.
 Elapsed time:       0 days  4 hours 35 minutes 34.8 seconds.
 File lengths (MBytes):  RWF=   8283 Int=      0 D2E=      0 Chk=    514 Scr=      1
 Normal termination of Gaussian 16 at Thu Jul  8 14:36:59 2021.
