 Entering Gaussian System, Link 0=g16
 Input=ES.com
 Output=ES.out
 Initial command:
 /usr/local/apps/gaussian/g16-b01-avx2//g16/l1.exe "/tmp/r2532.858005.maple/Gau-3377.inp" -scrdir="/tmp/r2532.858005.maple/"
 Entering Link 1 = /usr/local/apps/gaussian/g16-b01-avx2//g16/l1.exe PID=      3464.
  
 Copyright (c) 1988-2017, Gaussian, Inc.  All Rights Reserved.
  
 This is part of the Gaussian(R) 16 program.  It is based on
 the Gaussian(R) 09 system (copyright 2009, Gaussian, Inc.),
 the Gaussian(R) 03 system (copyright 2003, Gaussian, Inc.),
 the Gaussian(R) 98 system (copyright 1998, Gaussian, Inc.),
 the Gaussian(R) 94 system (copyright 1995, Gaussian, Inc.),
 the Gaussian 92(TM) system (copyright 1992, Gaussian, Inc.),
 the Gaussian 90(TM) system (copyright 1990, Gaussian, Inc.),
 the Gaussian 88(TM) system (copyright 1988, Gaussian, Inc.),
 the Gaussian 86(TM) system (copyright 1986, Carnegie Mellon
 University), and the Gaussian 82(TM) system (copyright 1983,
 Carnegie Mellon University). Gaussian is a federally registered
 trademark of Gaussian, Inc.
  
 This software contains proprietary and confidential information,
 including trade secrets, belonging to Gaussian, Inc.
  
 This software is provided under written license and may be
 used, copied, transmitted, or stored only in accord with that
 written license.
  
 The following legend is applicable only to US Government
 contracts under FAR:
  
                    RESTRICTED RIGHTS LEGEND
  
 Use, reproduction and disclosure by the US Government is
 subject to restrictions as set forth in subparagraphs (a)
 and (c) of the Commercial Computer Software - Restricted
 Rights clause in FAR 52.227-19.
  
 Gaussian, Inc.
 340 Quinnipiac St., Bldg. 40, Wallingford CT 06492
  
  
 ---------------------------------------------------------------
 Warning -- This program may not be used in any manner that
 competes with the business of Gaussian, Inc. or will provide
 assistance to any competitor of Gaussian, Inc.  The licensee
 of this program is prohibited from giving any competitor of
 Gaussian, Inc. access to this program.  By using this program,
 the user acknowledges that Gaussian, Inc. is engaged in the
 business of creating and licensing software in the field of
 computational chemistry and represents and warrants to the
 licensee that it is not a competitor of Gaussian, Inc. and that
 it will not use this program in any manner prohibited above.
 ---------------------------------------------------------------
  

 Cite this work as:
 Gaussian 16, Revision B.01,
 M. J. Frisch, G. W. Trucks, H. B. Schlegel, G. E. Scuseria, 
 M. A. Robb, J. R. Cheeseman, G. Scalmani, V. Barone, 
 G. A. Petersson, H. Nakatsuji, X. Li, M. Caricato, A. V. Marenich, 
 J. Bloino, B. G. Janesko, R. Gomperts, B. Mennucci, H. P. Hratchian, 
 J. V. Ortiz, A. F. Izmaylov, J. L. Sonnenberg, D. Williams-Young, 
 F. Ding, F. Lipparini, F. Egidi, J. Goings, B. Peng, A. Petrone, 
 T. Henderson, D. Ranasinghe, V. G. Zakrzewski, J. Gao, N. Rega, 
 G. Zheng, W. Liang, M. Hada, M. Ehara, K. Toyota, R. Fukuda, 
 J. Hasegawa, M. Ishida, T. Nakajima, Y. Honda, O. Kitao, H. Nakai, 
 T. Vreven, K. Throssell, J. A. Montgomery, Jr., J. E. Peralta, 
 F. Ogliaro, M. J. Bearpark, J. J. Heyd, E. N. Brothers, K. N. Kudin, 
 V. N. Staroverov, T. A. Keith, R. Kobayashi, J. Normand, 
 K. Raghavachari, A. P. Rendell, J. C. Burant, S. S. Iyengar, 
 J. Tomasi, M. Cossi, J. M. Millam, M. Klene, C. Adamo, R. Cammi, 
 J. W. Ochterski, R. L. Martin, K. Morokuma, O. Farkas, 
 J. B. Foresman, and D. J. Fox, Gaussian, Inc., Wallingford CT, 2016.
 
 ******************************************
 Gaussian 16:  ES64L-G16RevB.01 20-Dec-2017
                14-Jun-2021 
 ******************************************
 %mem=8gb
 ------------------------------------------------------------------
 #N TD(NStates=10) B3lYP/aug-cc-pVDZ SCRF=(Solvent=TetraHydroFuran)
 ------------------------------------------------------------------
 1/38=1,172=1/1;
 2/12=2,17=6,18=5,40=1/2;
 3/5=16,7=10,11=9,25=1,30=1,70=2201,72=20,74=-5/1,2,3,8;
 4//1;
 5/5=2,38=5,53=20/2;
 8/6=1,10=1,108=10/1;
 9/41=10,42=1,70=2/14;
 6/7=2,8=2,9=2,10=2/1;
 99/5=1,9=1/99;
 ----
 Name
 ----
 Symbolic Z-matrix:
 Charge =  0 Multiplicity = 1
 6                     0.93737  -3.07345  -0.18667 
 6                     2.12287  -2.11525  -0.08166 
 6                     1.67932  -0.8041    0.06845 
 6                     0.24933  -0.78717   0.07773 
 16                   -1.03641   0.36103   0.21552 
 6                    -2.23886  -0.92615   0.05558 
 6                    -3.66345  -0.61872   0.08808 
 6                    -4.16707   0.63979  -0.28462 
 6                    -5.52322   0.91821  -0.26005 
 6                    -6.45364  -0.05647   0.14537 
 7                    -7.82802   0.22115   0.17817 
 6                    -8.3007    1.55297   0.38581 
 6                    -9.2542    2.10972  -0.46577 
 1                    -9.62521   1.52842  -1.30142 
 6                    -9.74567   3.39753  -0.25291 
 6                    -9.267     4.15743   0.81702 
 6                    -8.3043    3.60531   1.67269 
 6                    -7.83674   2.31876   1.46616 
 1                    -7.10302   1.89706   2.14277 
 1                    -7.95078   4.20256   2.50434 
 8                    -9.66831   5.42528   1.11427 
 6                    -10.64223   6.03995   0.28244 
 1                    -10.28531   6.13903  -0.74886 
 1                    -11.58568   5.48251   0.28856 
 1                    -10.80803   7.03089   0.70155 
 1                    -10.48879   3.79437  -0.93121 
 6                    -8.79054  -0.816    -0.01459 
 6                    -8.70689  -1.68172  -1.10535 
 6                    -9.64725  -2.69412  -1.29497 
 6                    -10.70787  -2.83637  -0.39654 
 6                    -10.80507  -1.9603    0.69236 
 6                    -9.85575  -0.97086   0.88449 
 1                    -9.93578  -0.30347   1.73416 
 1                    -11.63103  -2.0851    1.38194 
 8                    -11.68672  -3.78038  -0.48918 
 6                    -11.64573  -4.69413  -1.57594 
 1                    -11.72295  -4.17736  -2.53919 
 1                    -10.73103  -5.29752  -1.55983 
 1                    -12.50803  -5.34631  -1.44855 
 1                    -9.54839  -3.34875  -2.15031 
 1                    -7.89486  -1.56908  -1.81389 
 6                    -5.95718  -1.31887   0.52374 
 6                    -4.60013  -1.58717   0.49474 
 1                    -4.25383  -2.55733   0.83193 
 1                    -6.64587  -2.0827    0.86097 
 1                    -5.87359   1.89365  -0.57133 
 1                    -3.48639   1.40814  -0.63469 
 6                    -1.62549  -2.16105  -0.07841 
 6                    -0.21972  -2.0834   -0.06482 
 1                    -2.19197  -3.07258  -0.2147 
 16                    2.97765   0.32206   0.18497 
 6                     4.16218  -0.98809   0.01242 
 6                     3.51621  -2.21773  -0.11396 
 1                     4.06458  -3.14215  -0.24465 
 6                     5.56705  -0.7373    0.04514 
 16                    6.68086  -2.03652   0.37656 
 6                     8.11724  -1.00735   0.24972 
 6                     7.69972   0.29807  -0.01318 
 6                     6.28361   0.45519  -0.1447 
 6                     5.91829   1.77686  -0.54353 
 6                     7.00203   2.58067  -0.71621 
 16                    8.54275   1.78183  -0.38 
 6                     6.92949   3.99545  -1.12736 
 8                     5.9002    4.58649  -1.35272 
 8                     8.15699   4.5424   -1.22147 
 6                     8.20206   5.92907  -1.60434 
 1                     7.75699   6.06463  -2.59108 
 1                     7.66179   6.53969  -0.87974 
 1                     9.25704   6.19099  -1.61758 
 1                     4.91461   2.13592  -0.71661 
 6                     9.37614  -1.65344   0.3541 
 6                     10.62216  -1.15892   0.65376 
 6                     10.83171   0.14424   1.17759 
 7                     10.99525   1.19398   1.63525 
 6                     11.83447  -2.03674   0.64516 
 8                     11.76302  -3.14754  -0.14686 
 1                     11.0612  -3.0442   -0.79945 
 8                     12.81695  -1.81893   1.29612 
 1                     9.33135  -2.73041   0.20604 
 6                     0.91727  -3.80042  -1.54825 
 1                     0.92417  -3.0863   -2.37401 
 1                     1.78943  -4.45222  -1.6488 
 1                     0.02102  -4.42022  -1.63746 
 6                     0.93018  -4.09326   0.97224 
 1                     0.94722  -3.58743   1.93955 
 1                     0.0336   -4.71732   0.9264 
 1                     1.80217  -4.75016   0.91157 
 
 Stoichiometry    C43H32N2O6S4
 Framework group  C1[X(C43H32N2O6S4)]
 Deg. of freedom   255
 Full point group                 C1      NOp   1
 Largest Abelian subgroup         C1      NOp   1
 Largest concise Abelian subgroup C1      NOp   1
                         Standard orientation:                         
 ---------------------------------------------------------------------
 Center     Atomic      Atomic             Coordinates (Angstroms)
 Number     Number       Type             X           Y           Z
 ---------------------------------------------------------------------
      1          6           0       -0.937367   -3.073447    0.186672
      2          6           0       -2.122867   -2.115248    0.081661
      3          6           0       -1.679316   -0.804099   -0.068452
      4          6           0       -0.249325   -0.787165   -0.077728
      5         16           0        1.036410    0.361025   -0.215518
      6          6           0        2.238860   -0.926149   -0.055578
      7          6           0        3.663445   -0.618716   -0.088081
      8          6           0        4.167072    0.639785    0.284618
      9          6           0        5.523215    0.918205    0.260048
     10          6           0        6.453643   -0.056471   -0.145370
     11          7           0        7.828021    0.221147   -0.178165
     12          6           0        8.300703    1.552970   -0.385806
     13          6           0        9.254197    2.109715    0.465769
     14          1           0        9.625209    1.528423    1.301420
     15          6           0        9.745666    3.397532    0.252908
     16          6           0        9.267005    4.157431   -0.817016
     17          6           0        8.304305    3.605310   -1.672687
     18          6           0        7.836741    2.318757   -1.466163
     19          1           0        7.103023    1.897060   -2.142771
     20          1           0        7.950783    4.202556   -2.504337
     21          8           0        9.668305    5.425275   -1.114274
     22          6           0       10.642233    6.039950   -0.282435
     23          1           0       10.285306    6.139026    0.748855
     24          1           0       11.585682    5.482513   -0.288556
     25          1           0       10.808033    7.030888   -0.701547
     26          1           0       10.488787    3.794368    0.931210
     27          6           0        8.790537   -0.816003    0.014590
     28          6           0        8.706892   -1.681719    1.105345
     29          6           0        9.647255   -2.694117    1.294967
     30          6           0       10.707870   -2.836370    0.396541
     31          6           0       10.805065   -1.960304   -0.692355
     32          6           0        9.855745   -0.970857   -0.884487
     33          1           0        9.935782   -0.303465   -1.734163
     34          1           0       11.631034   -2.085101   -1.381938
     35          8           0       11.686719   -3.780380    0.489179
     36          6           0       11.645727   -4.694126    1.575939
     37          1           0       11.722954   -4.177359    2.539191
     38          1           0       10.731032   -5.297522    1.559834
     39          1           0       12.508032   -5.346312    1.448547
     40          1           0        9.548391   -3.348753    2.150306
     41          1           0        7.894861   -1.569078    1.813892
     42          6           0        5.957184   -1.318867   -0.523743
     43          6           0        4.600126   -1.587169   -0.494737
     44          1           0        4.253834   -2.557328   -0.831925
     45          1           0        6.645870   -2.082701   -0.860973
     46          1           0        5.873589    1.893646    0.571326
     47          1           0        3.486389    1.408137    0.634689
     48          6           0        1.625489   -2.161053    0.078410
     49          6           0        0.219718   -2.083396    0.064821
     50          1           0        2.191968   -3.072577    0.214700
     51         16           0       -2.977646    0.322058   -0.184968
     52          6           0       -4.162184   -0.988087   -0.012416
     53          6           0       -3.516210   -2.217730    0.113955
     54          1           0       -4.064580   -3.142153    0.244654
     55          6           0       -5.567054   -0.737299   -0.045138
     56         16           0       -6.680862   -2.036515   -0.376555
     57          6           0       -8.117241   -1.007346   -0.249715
     58          6           0       -7.699721    0.298072    0.013178
     59          6           0       -6.283611    0.455188    0.144695
     60          6           0       -5.918293    1.776862    0.543528
     61          6           0       -7.002029    2.580666    0.716207
     62         16           0       -8.542754    1.781825    0.380001
     63          6           0       -6.929485    3.995445    1.127359
     64          8           0       -5.900200    4.586493    1.352715
     65          8           0       -8.156994    4.542399    1.221469
     66          6           0       -8.202058    5.929065    1.604344
     67          1           0       -7.756993    6.064628    2.591080
     68          1           0       -7.661788    6.539691    0.879736
     69          1           0       -9.257040    6.190991    1.617581
     70          1           0       -4.914608    2.135918    0.716605
     71          6           0       -9.376140   -1.653440   -0.354095
     72          6           0      -10.622163   -1.158916   -0.653764
     73          6           0      -10.831709    0.144243   -1.177590
     74          7           0      -10.995247    1.193976   -1.635252
     75          6           0      -11.834467   -2.036742   -0.645164
     76          8           0      -11.763023   -3.147544    0.146859
     77          1           0      -11.061204   -3.044195    0.799445
     78          8           0      -12.816952   -1.818928   -1.296115
     79          1           0       -9.331350   -2.730405   -0.206037
     80          6           0       -0.917271   -3.800420    1.548251
     81          1           0       -0.924169   -3.086302    2.374015
     82          1           0       -1.789433   -4.452223    1.648799
     83          1           0       -0.021019   -4.420217    1.637464
     84          6           0       -0.930182   -4.093261   -0.972236
     85          1           0       -0.947217   -3.587426   -1.939546
     86          1           0       -0.033600   -4.717316   -0.926403
     87          1           0       -1.802170   -4.750158   -0.911574
 ---------------------------------------------------------------------
 Rotational constants (GHZ):           0.0816788           0.0106340           0.0095919
 Standard basis: Aug-CC-pVDZ (5D, 7F)
 There are  1679 symmetry adapted cartesian basis functions of A   symmetry.
 There are  1569 symmetry adapted basis functions of A   symmetry.
  1569 basis functions,  2869 primitive gaussians,  1679 cartesian basis functions
   208 alpha electrons      208 beta electrons
       nuclear repulsion energy      7134.6351005501 Hartrees.
 NAtoms=   87 NActive=   87 NUniq=   87 SFac= 1.00D+00 NAtFMM=   60 NAOKFM=T Big=T
 Integral buffers will be    131072 words long.
 Regular integral format.
 Two-electron integral symmetry is turned on.
 ------------------------------------------------------------------------------
 Polarizable Continuum Model (PCM)
 =================================
 Model                : PCM.
 Atomic radii         : UFF (Universal Force Field).
 Polarization charges : Total charges.
 Charge compensation  : None.
 Solution method      : On-the-fly selection.
 Cavity type          : Scaled VdW (van der Waals Surface) (Alpha=1.100).
 Cavity algorithm     : GePol (No added spheres)
                        Default sphere list used, NSphG=   87.
                        Lebedev-Laikov grids with approx.  5.0 points / Ang**2.
                        Smoothing algorithm: York/Karplus (Gamma=1.0000).
                        Polarization charges: spherical gaussians, with
                                              point-specific exponents (IZeta= 3).
                        Self-potential: point-specific (ISelfS= 7).
                        Self-field    : sphere-specific E.n sum rule (ISelfD= 2).
 Solvent              : TetraHydroFuran, Eps=   7.425700 Eps(inf)=   1.974025
 ------------------------------------------------------------------------------
 One-electron integrals computed using PRISM.
 NBasis=  1569 RedAO= T EigKep=  1.04D-06  NBF=  1569
 NBsUse=  1559 1.00D-06 EigRej=  9.70D-07 NBFU=  1559
 ExpMin= 2.97D-02 ExpMax= 1.11D+05 ExpMxC= 1.07D+03 IAcc=3 IRadAn=         5 AccDes= 0.00D+00
 Harris functional with IExCor=  402 and IRadAn=       5 diagonalized for initial guess.
 HarFok:  IExCor=  402 AccDes= 0.00D+00 IRadAn=         5 IDoV= 1 UseB2=F ITyADJ=14
 ICtDFT=  3500011 ScaDFX=  1.000000  1.000000  1.000000  1.000000
 FoFCou: FMM=F IPFlag=           0 FMFlag=      100000 FMFlg1=        2001
         NFxFlg=           0 DoJE=T BraDBF=F KetDBF=T FulRan=T
         wScrn=  0.000000 ICntrl=       500 IOpCl=  0 I1Cent=   200000004 NGrid=           0
         NMat0=    1 NMatS0=      1 NMatT0=    0 NMatD0=    1 NMtDS0=    0 NMtDT0=    0
 Petite list used in FoFCou.
 Requested convergence on RMS density matrix=1.00D-08 within 128 cycles.
 Requested convergence on MAX density matrix=1.00D-06.
 Requested convergence on             energy=1.00D-06.
 No special actions if energy rises.
 Inv3:  Mode=1 IEnd=   141673152.
 Iteration    1 A*A^-1 deviation from unit magnitude is 4.66D-15 for   6454.
 Iteration    1 A*A^-1 deviation from orthogonality  is 3.02D-15 for   6792   6069.
 Iteration    1 A^-1*A deviation from unit magnitude is 4.66D-15 for   6454.
 Iteration    1 A^-1*A deviation from orthogonality  is 2.10D-15 for   4582   1888.
 Restarting incremental Fock formation.
 Restarting incremental Fock formation.
 Error on total polarization charges =  0.03418
 SCF Done:  E(RB3LYP) =  -3811.76331659     A.U. after   58 cycles
            NFock= 58  Conv=0.84D-08     -V/T= 2.0044
 DoSCS=F DFT=T ScalE2(SS,OS)=  1.000000  1.000000
 ExpMin= 2.97D-02 ExpMax= 1.11D+05 ExpMxC= 1.07D+03 IAcc=3 IRadAn=         5 AccDes= 0.00D+00
 HarFok:  IExCor=  205 AccDes= 0.00D+00 IRadAn=         5 IDoV=-2 UseB2=F ITyADJ=14
 ICtDFT= 12500011 ScaDFX=  1.000000  1.000000  1.000000  1.000000
 GSVD:  LWork=       -5609 too small for GESVD, short by       26270 words or       26270 for optimal perf.
 Range of M.O.s used for correlation:    72  1559
 NBasis=  1569 NAE=   208 NBE=   208 NFC=    71 NFV=     0
 NROrb=   1488 NOA=   137 NOB=   137 NVA=  1351 NVB=  1351

 **** Warning!!: The largest alpha MO coefficient is  0.10166322D+03


 **** Warning!!: The smallest alpha delta epsilon is  0.66238834D-01

 NEqPCM:  Using non-equilibrium solvation (IEInf=1, Eps=   7.4257, EpsInf=   1.9740)
 Inv3:  Mode=1 IEnd=   141673152.
 Iteration    1 A*A^-1 deviation from unit magnitude is 3.89D-15 for   6466.
 Iteration    1 A*A^-1 deviation from orthogonality  is 2.62D-15 for   4760   1546.
 Iteration    1 A^-1*A deviation from unit magnitude is 4.00D-15 for   6466.
 Iteration    1 A^-1*A deviation from orthogonality  is 2.07D-15 for   5087   2297.
 Orbital symmetries:
       Occupied  (A) (A) (A) (A) (A) (A) (A) (A) (A) (A) (A) (A)
                 (A) (A) (A) (A) (A) (A) (A) (A) (A) (A) (A) (A)
                 (A) (A) (A) (A) (A) (A) (A) (A) (A) (A) (A) (A)
                 (A) (A) (A) (A) (A) (A) (A) (A) (A) (A) (A) (A)
                 (A) (A) (A) (A) (A) (A) (A) (A) (A) (A) (A) (A)
                 (A) (A) (A) (A) (A) (A) (A) (A) (A) (A) (A) (A)
                 (A) (A) (A) (A) (A) (A) (A) (A) (A) (A) (A) (A)
                 (A) (A) (A) (A) (A) (A) (A) (A) (A) (A) (A) (A)
                 (A) (A) (A) (A) (A) (A) (A) (A) (A) (A) (A) (A)
                 (A) (A) (A) (A) (A) (A) (A) (A) (A) (A) (A) (A)
                 (A) (A) (A) (A) (A) (A) (A) (A) (A) (A) (A) (A)
                 (A) (A) (A) (A) (A) (A) (A) (A) (A) (A) (A) (A)
                 (A) (A) (A) (A) (A) (A) (A) (A) (A) (A) (A) (A)
                 (A) (A) (A) (A) (A) (A) (A) (A) (A) (A) (A) (A)
                 (A) (A) (A) (A) (A) (A) (A) (A) (A) (A) (A) (A)
                 (A) (A) (A) (A) (A) (A) (A) (A) (A) (A) (A) (A)
                 (A) (A) (A) (A) (A) (A) (A) (A) (A) (A) (A) (A)
                 (A) (A) (A) (A)
       Virtual   (A) (A) (A) (A) (A) (A) (A) (A) (A) (A) (A) (A)
                 (A) (A) (A) (A) (A) (A) (A) (A) (A) (A) (A) (A)
                 (A) (A) (A) (A) (A) (A) (A) (A) (A) (A) (A) (A)
                 (A) (A) (A) (A) (A) (A) (A) (A) (A) (A) (A) (A)
                 (A) (A) (A) (A) (A) (A) (A) (A) (A) (A) (A) (A)
                 (A) (A) (A) (A) (A) (A) (A) (A) (A) (A) (A) (A)
                 (A) (A) (A) (A) (A) (A) (A) (A) (A) (A) (A) (A)
                 (A) (A) (A) (A) (A) (A) (A) (A) (A) (A) (A) (A)
                 (A) (A) (A) (A) (A) (A) (A) (A) (A) (A) (A) (A)
                 (A) (A) (A) (A) (A) (A) (A) (A) (A) (A) (A) (A)
                 (A) (A) (A) (A) (A) (A) (A) (A) (A) (A) (A) (A)
                 (A) (A) (A) (A) (A) (A) (A) (A) (A) (A) (A) (A)
                 (A) (A) (A) (A) (A) (A) (A) (A) (A) (A) (A) (A)
                 (A) (A) (A) (A) (A) (A) (A) (A) (A) (A) (A) (A)
                 (A) (A) (A) (A) (A) (A) (A) (A) (A) (A) (A) (A)
                 (A) (A) (A) (A) (A) (A) (A) (A) (A) (A) (A) (A)
                 (A) (A) (A) (A) (A) (A) (A) (A) (A) (A) (A) (A)
                 (A) (A) (A) (A) (A) (A) (A) (A) (A) (A) (A) (A)
                 (A) (A) (A) (A) (A) (A) (A) (A) (A) (A) (A) (A)
                 (A) (A) (A) (A) (A) (A) (A) (A) (A) (A) (A) (A)
                 (A) (A) (A) (A) (A) (A) (A) (A) (A) (A) (A) (A)
                 (A) (A) (A) (A) (A) (A) (A) (A) (A) (A) (A) (A)
                 (A) (A) (A) (A) (A) (A) (A) (A) (A) (A) (A) (A)
                 (A) (A) (A) (A) (A) (A) (A) (A) (A) (A) (A) (A)
                 (A) (A) (A) (A) (A) (A) (A) (A) (A) (A) (A) (A)
                 (A) (A) (A) (A) (A) (A) (A) (A) (A) (A) (A) (A)
                 (A) (A) (A) (A) (A) (A) (A) (A) (A) (A) (A) (A)
                 (A) (A) (A) (A) (A) (A) (A) (A) (A) (A) (A) (A)
                 (A) (A) (A) (A) (A) (A) (A) (A) (A) (A) (A) (A)
                 (A) (A) (A) (A) (A) (A) (A) (A) (A) (A) (A) (A)
                 (A) (A) (A) (A) (A) (A) (A) (A) (A) (A) (A) (A)
                 (A) (A) (A) (A) (A) (A) (A) (A) (A) (A) (A) (A)
                 (A) (A) (A) (A) (A) (A) (A) (A) (A) (A) (A) (A)
                 (A) (A) (A) (A) (A) (A) (A) (A) (A) (A) (A) (A)
                 (A) (A) (A) (A) (A) (A) (A) (A) (A) (A) (A) (A)
                 (A) (A) (A) (A) (A) (A) (A) (A) (A) (A) (A) (A)
                 (A) (A) (A) (A) (A) (A) (A) (A) (A) (A) (A) (A)
                 (A) (A) (A) (A) (A) (A) (A) (A) (A) (A) (A) (A)
                 (A) (A) (A) (A) (A) (A) (A) (A) (A) (A) (A) (A)
                 (A) (A) (A) (A) (A) (A) (A) (A) (A) (A) (A) (A)
                 (A) (A) (A) (A) (A) (A) (A) (A) (A) (A) (A) (A)
                 (A) (A) (A) (A) (A) (A) (A) (A) (A) (A) (A) (A)
                 (A) (A) (A) (A) (A) (A) (A) (A) (A) (A) (A) (A)
                 (A) (A) (A) (A) (A) (A) (A) (A) (A) (A) (A) (A)
                 (A) (A) (A) (A) (A) (A) (A) (A) (A) (A) (A) (A)
                 (A) (A) (A) (A) (A) (A) (A) (A) (A) (A) (A) (A)
                 (A) (A) (A) (A) (A) (A) (A) (A) (A) (A) (A) (A)
                 (A) (A) (A) (A) (A) (A) (A) (A) (A) (A) (A) (A)
                 (A) (A) (A) (A) (A) (A) (A) (A) (A) (A) (A) (A)
                 (A) (A) (A) (A) (A) (A) (A) (A) (A) (A) (A) (A)
                 (A) (A) (A) (A) (A) (A) (A) (A) (A) (A) (A) (A)
                 (A) (A) (A) (A) (A) (A) (A) (A) (A) (A) (A) (A)
                 (A) (A) (A) (A) (A) (A) (A) (A) (A) (A) (A) (A)
                 (A) (A) (A) (A) (A) (A) (A) (A) (A) (A) (A) (A)
                 (A) (A) (A) (A) (A) (A) (A) (A) (A) (A) (A) (A)
                 (A) (A) (A) (A) (A) (A) (A) (A) (A) (A) (A) (A)
                 (A) (A) (A) (A) (A) (A) (A) (A) (A) (A) (A) (A)
                 (A) (A) (A) (A) (A) (A) (A) (A) (A) (A) (A) (A)
                 (A) (A) (A) (A) (A) (A) (A) (A) (A) (A) (A) (A)
                 (A) (A) (A) (A) (A) (A) (A) (A) (A) (A) (A) (A)
                 (A) (A) (A) (A) (A) (A) (A) (A) (A) (A) (A) (A)
                 (A) (A) (A) (A) (A) (A) (A) (A) (A) (A) (A) (A)
                 (A) (A) (A) (A) (A) (A) (A) (A) (A) (A) (A) (A)
                 (A) (A) (A) (A) (A) (A) (A) (A) (A) (A) (A) (A)
                 (A) (A) (A) (A) (A) (A) (A) (A) (A) (A) (A) (A)
                 (A) (A) (A) (A) (A) (A) (A) (A) (A) (A) (A) (A)
                 (A) (A) (A) (A) (A) (A) (A) (A) (A) (A) (A) (A)
                 (A) (A) (A) (A) (A) (A) (A) (A) (A) (A) (A) (A)
                 (A) (A) (A) (A) (A) (A) (A) (A) (A) (A) (A) (A)
                 (A) (A) (A) (A) (A) (A) (A) (A) (A) (A) (A) (A)
                 (A) (A) (A) (A) (A) (A) (A) (A) (A) (A) (A) (A)
                 (A) (A) (A) (A) (A) (A) (A) (A) (A) (A) (A) (A)
                 (A) (A) (A) (A) (A) (A) (A) (A) (A) (A) (A) (A)
                 (A) (A) (A) (A) (A) (A) (A) (A) (A) (A) (A) (A)
                 (A) (A) (A) (A) (A) (A) (A) (A) (A) (A) (A) (A)
                 (A) (A) (A) (A) (A) (A) (A) (A) (A) (A) (A) (A)
                 (A) (A) (A) (A) (A) (A) (A) (A) (A) (A) (A) (A)
                 (A) (A) (A) (A) (A) (A) (A) (A) (A) (A) (A) (A)
                 (A) (A) (A) (A) (A) (A) (A) (A) (A) (A) (A) (A)
                 (A) (A) (A) (A) (A) (A) (A) (A) (A) (A) (A) (A)
                 (A) (A) (A) (A) (A) (A) (A) (A) (A) (A) (A) (A)
                 (A) (A) (A) (A) (A) (A) (A) (A) (A) (A) (A) (A)
                 (A) (A) (A) (A) (A) (A) (A) (A) (A) (A) (A) (A)
                 (A) (A) (A) (A) (A) (A) (A) (A) (A) (A) (A) (A)
                 (A) (A) (A) (A) (A) (A) (A) (A) (A) (A) (A) (A)
                 (A) (A) (A) (A) (A) (A) (A) (A) (A) (A) (A) (A)
                 (A) (A) (A) (A) (A) (A) (A) (A) (A) (A) (A) (A)
                 (A) (A) (A) (A) (A) (A) (A) (A) (A) (A) (A) (A)
                 (A) (A) (A) (A) (A) (A) (A) (A) (A) (A) (A) (A)
                 (A) (A) (A) (A) (A) (A) (A) (A) (A) (A) (A) (A)
                 (A) (A) (A) (A) (A) (A) (A) (A) (A) (A) (A) (A)
                 (A) (A) (A) (A) (A) (A) (A) (A) (A) (A) (A) (A)
                 (A) (A) (A) (A) (A) (A) (A) (A) (A) (A) (A) (A)
                 (A) (A) (A) (A) (A) (A) (A) (A) (A) (A) (A) (A)
                 (A) (A) (A) (A) (A) (A) (A) (A) (A) (A) (A) (A)
                 (A) (A) (A) (A) (A) (A) (A) (A) (A) (A) (A) (A)
                 (A) (A) (A) (A) (A) (A) (A) (A) (A) (A) (A) (A)
                 (A) (A) (A) (A) (A) (A) (A) (A) (A) (A) (A) (A)
                 (A) (A) (A) (A) (A) (A) (A) (A) (A) (A) (A) (A)
                 (A) (A) (A) (A) (A) (A) (A) (A) (A) (A) (A) (A)
                 (A) (A) (A) (A) (A) (A) (A) (A) (A) (A) (A) (A)
                 (A) (A) (A) (A) (A) (A) (A) (A) (A) (A) (A) (A)
                 (A) (A) (A) (A) (A) (A) (A) (A) (A) (A) (A) (A)
                 (A) (A) (A) (A) (A) (A) (A) (A) (A) (A) (A) (A)
                 (A) (A) (A) (A) (A) (A) (A) (A) (A) (A) (A) (A)
                 (A) (A) (A) (A) (A) (A) (A) (A) (A) (A) (A) (A)
                 (A) (A) (A) (A) (A) (A) (A) (A) (A) (A) (A) (A)
                 (A) (A) (A) (A) (A) (A) (A) (A) (A) (A) (A) (A)
                 (A) (A) (A) (A) (A) (A) (A) (A) (A) (A) (A) (A)
                 (A) (A) (A) (A) (A) (A) (A) (A) (A) (A) (A) (A)
                 (A) (A) (A) (A) (A) (A) (A) (A) (A) (A) (A) (A)
                 (A) (A) (A) (A) (A) (A) (A) (A) (A) (A) (A) (A)
                 (A) (A) (A) (A) (A) (A) (A)
    40 initial guesses have been made.
 Convergence on wavefunction:    0.001000000000000
 Iteration     1 Dimension    40 NMult     0 NNew     40
 CISAX will form    40 AO SS matrices at one time.
 New state      4 was old state      5
 New state      5 was old state      6
 New state      6 was old state      7
 New state      7 was old state      4
 New state      8 was old state     10
 New state      9 was old state      8
 New state     10 was old state      9
 Iteration     2 Dimension    60 NMult    40 NNew     20
 New state      6 was old state      7
 New state      7 was old state      6
 Iteration     3 Dimension    80 NMult    60 NNew     20
 Iteration     4 Dimension   100 NMult    80 NNew     20
 Iteration     5 Dimension   118 NMult   100 NNew     18
 Iteration     6 Dimension   126 NMult   118 NNew      8
 Iteration     7 Dimension   130 NMult   126 NNew      4
 Iteration     8 Dimension   132 NMult   130 NNew      2
 Iteration     9 Dimension   134 NMult   132 NNew      2
 ***********************************************************************
 Excited states from <AA,BB:AA,BB> singles matrix:
 ***********************************************************************
 
 Ground to excited state transition densities written to RWF  633
 Ground to excited state transition electric dipole moments (Au):
       state          X           Y           Z        Dip. S.      Osc.
         1        -5.8132      0.0162     -0.0960     33.8030      1.3188
         2         3.5402     -0.4000      0.1562     12.7171      0.6766
         3         0.1225      0.4449      0.2964      0.3009      0.0177
         4        -0.6414     -0.0796     -0.0750      0.4234      0.0297
         5        -1.9968     -1.0298     -0.1862      5.0823      0.3623
         6         0.7160     -0.3995     -0.3918      0.8257      0.0603
         7         0.0262     -0.2357      0.0473      0.0585      0.0045
         8        -0.1517     -0.0478      0.4389      0.2179      0.0178
         9        -0.2158      0.4377      0.0798      0.2445      0.0207
        10         0.4856     -0.2417     -0.1238      0.3095      0.0266
 Ground to excited state transition velocity dipole moments (Au):
       state          X           Y           Z        Dip. S.      Osc.
         1         0.3374     -0.0006      0.0056      0.1139      1.2974
         2        -0.2807      0.0307     -0.0126      0.0799      0.6673
         3        -0.0102     -0.0389     -0.0260      0.0023      0.0173
         4         0.0674      0.0089      0.0081      0.0047      0.0297
         5         0.2111      0.1080      0.0196      0.0566      0.3529
         6        -0.0784      0.0441      0.0428      0.0099      0.0604
         7        -0.0031      0.0270     -0.0055      0.0008      0.0044
         8         0.0186      0.0052     -0.0538      0.0033      0.0178
         9         0.0270     -0.0552     -0.0102      0.0039      0.0204
        10        -0.0617      0.0317      0.0160      0.0051      0.0263
 Ground to excited state transition magnetic dipole moments (Au):
       state          X           Y           Z
         1         0.0108      0.0773      0.9431
         2         0.0277     -0.1992     -0.7633
         3         0.0595     -0.3690      0.7615
         4         0.0059      0.1347      0.0324
         5         0.0235      0.1599     -0.1434
         6        -0.1140      0.6508     -1.2312
         7         0.0255      0.0510      0.4580
         8        -0.0434      1.0129      1.0824
         9         0.0555     -0.2780      0.6462
        10         0.0191      0.1684     -0.7886
 Ground to excited state transition velocity quadrupole moments (Au):
       state          XX          YY          ZZ          XY          XZ          YZ
         1        -1.5932      0.0472     -0.0038     -0.1103     -0.1976     -0.0863
         2         5.3310      0.1233      0.0372      0.2437      0.3354      0.0666
         3         3.7677     -0.2023      0.0149      0.9879      0.4747     -0.1105
         4        -0.7426      0.0472     -0.0094      0.0297     -0.1683     -0.0354
         5         3.6757      0.6116      0.0463     -0.6885     -0.3139      0.0407
         6        -6.5890      0.1907     -0.0476     -1.3414     -0.8292      0.1459
         7        -0.0910      0.0665     -0.0022      0.6298     -0.0421     -0.0027
         8         0.3097      0.0607      0.0270      0.2154     -0.8291     -0.0325
         9        -1.0075     -0.0869     -0.0006      0.4955      0.2830     -0.0870
        10         0.5006      0.1954     -0.0012     -0.2965     -0.1660     -0.0603
 <0|del|b> * <b|rxdel|0> + <0|del|b> * <b|delr+rdel|0>
 Rotatory Strengths (R) in cgs (10**-40 erg-esu-cm/Gauss)
       state          XX          YY          ZZ    R(velocity)    E-M Angle
         1        27.2932   -118.1044    198.2675     35.8188       88.40
         2       -43.8186    -61.2122     66.8025    -12.7428       91.11
         3       -50.8821     25.6651    -23.4102    -16.2091       98.60
         4        10.8026     -6.6071      8.3557      4.1837       78.67
         5       115.2043     80.1771    -66.9821     42.7997       67.81
         6      -144.8991      7.1633     40.3728    -32.4543       96.22
         7       -10.6112      2.6764      0.4707     -2.4880       95.48
         8      -174.1609   -138.8889      2.1689   -103.6270      129.38
         9        53.6266     -6.6494      9.9398     18.9723       76.54
        10       -18.4694    -14.6010    -13.2633    -15.4446       98.45
 1/2[<0|r|b>*<b|rxdel|0> + (<0|rxdel|b>*<b|r|0>)*]
 Rotatory Strengths (R) in cgs (10**-40 erg-esu-cm/Gauss)
       state          XX          YY          ZZ     R(length)
         1        44.2866     -0.8872     64.0102     35.8032
         2       -69.4418    -56.3415     84.3207    -13.8209
         3        -5.1543    116.0914   -159.6366    -16.2332
         4         2.6854      7.5796      1.7175      3.9941
         5        33.2305    116.4049    -18.8865     43.5830
         6        57.6969    183.8411   -341.1622    -33.2081
         7        -0.4709      8.5017    -15.3277     -2.4323
         8        -4.6580     34.2676   -335.9651   -102.1185
         9         8.4731     86.0443    -36.4477     19.3566
        10        -6.5692     28.7805    -69.0287    -15.6058
  1/2[<0|del|b>*<b|r|0> + (<0|r|b>*<b|del|0>)*] (Au)
       state          X           Y           Z        Dip. S.   Osc.(frdel)
         1        -1.9616     -0.0000     -0.0005      1.9621      1.3081
         2        -0.9937     -0.0123     -0.0020      1.0079      0.6719
         3        -0.0013     -0.0173     -0.0077      0.0263      0.0175
         4        -0.0432     -0.0007     -0.0006      0.0445      0.0297
         5        -0.4215     -0.1112     -0.0036      0.5363      0.3575
         6        -0.0561     -0.0176     -0.0168      0.0905      0.0603
         7        -0.0001     -0.0064     -0.0003      0.0067      0.0045
         8        -0.0028     -0.0002     -0.0236      0.0267      0.0178
         9        -0.0058     -0.0242     -0.0008      0.0308      0.0206
        10        -0.0300     -0.0077     -0.0020      0.0396      0.0264

 Excitation energies and oscillator strengths:
 
 Excited State   1:      Singlet-A      1.5924 eV  778.59 nm  f=1.3188  <S**2>=0.000
     208 -> 209        0.70597
 This state for optimization and/or second-order correction.
 Total Energy, E(TD-HF/TD-DFT) =  -3811.70479593    
 Copying the excited state density for this state as the 1-particle RhoCI density.
 
 Excited State   2:      Singlet-A      2.1717 eV  570.91 nm  f=0.6766  <S**2>=0.000
     207 -> 209        0.68605
     208 -> 210       -0.14489
 
 Excited State   3:      Singlet-A      2.4054 eV  515.44 nm  f=0.0177  <S**2>=0.000
     207 -> 209        0.15275
     208 -> 210        0.67720
 
 Excited State   4:      Singlet-A      2.8587 eV  433.70 nm  f=0.0297  <S**2>=0.000
     206 -> 209        0.55939
     207 -> 210       -0.31448
     208 -> 210       -0.11259
     208 -> 211        0.23804
 
 Excited State   5:      Singlet-A      2.9094 eV  426.15 nm  f=0.3623  <S**2>=0.000
     207 -> 210        0.40814
     208 -> 211        0.56133
 
 Excited State   6:      Singlet-A      2.9789 eV  416.21 nm  f=0.0603  <S**2>=0.000
     206 -> 209        0.39732
     207 -> 210        0.45540
     208 -> 211       -0.33541
 
 Excited State   7:      Singlet-A      3.1532 eV  393.20 nm  f=0.0045  <S**2>=0.000
     205 -> 209        0.70490
 
 Excited State   8:      Singlet-A      3.3297 eV  372.36 nm  f=0.0178  <S**2>=0.000
     207 -> 212        0.14018
     208 -> 212        0.68410
 
 Excited State   9:      Singlet-A      3.4627 eV  358.05 nm  f=0.0207  <S**2>=0.000
     201 -> 209       -0.12101
     202 -> 209        0.11174
     204 -> 209        0.64337
 
 Excited State  10:      Singlet-A      3.5038 eV  353.86 nm  f=0.0266  <S**2>=0.000
     200 -> 209       -0.13277
     201 -> 209        0.18743
     207 -> 211        0.63729
 SavETr:  write IOETrn=   770 NScale= 10 NData=  16 NLR=1 NState=   10 LETran=     190.

 **********************************************************************

            Population analysis using the SCF Density.

 **********************************************************************

 Orbital symmetries:
       Occupied  (A) (A) (A) (A) (A) (A) (A) (A) (A) (A) (A) (A)
                 (A) (A) (A) (A) (A) (A) (A) (A) (A) (A) (A) (A)
                 (A) (A) (A) (A) (A) (A) (A) (A) (A) (A) (A) (A)
                 (A) (A) (A) (A) (A) (A) (A) (A) (A) (A) (A) (A)
                 (A) (A) (A) (A) (A) (A) (A) (A) (A) (A) (A) (A)
                 (A) (A) (A) (A) (A) (A) (A) (A) (A) (A) (A) (A)
                 (A) (A) (A) (A) (A) (A) (A) (A) (A) (A) (A) (A)
                 (A) (A) (A) (A) (A) (A) (A) (A) (A) (A) (A) (A)
                 (A) (A) (A) (A) (A) (A) (A) (A) (A) (A) (A) (A)
                 (A) (A) (A) (A) (A) (A) (A) (A) (A) (A) (A) (A)
                 (A) (A) (A) (A) (A) (A) (A) (A) (A) (A) (A) (A)
                 (A) (A) (A) (A) (A) (A) (A) (A) (A) (A) (A) (A)
                 (A) (A) (A) (A) (A) (A) (A) (A) (A) (A) (A) (A)
                 (A) (A) (A) (A) (A) (A) (A) (A) (A) (A) (A) (A)
                 (A) (A) (A) (A) (A) (A) (A) (A) (A) (A) (A) (A)
                 (A) (A) (A) (A) (A) (A) (A) (A) (A) (A) (A) (A)
                 (A) (A) (A) (A) (A) (A) (A) (A) (A) (A) (A) (A)
                 (A) (A) (A) (A)
       Virtual   (A) (A) (A) (A) (A) (A) (A) (A) (A) (A) (A) (A)
                 (A) (A) (A) (A) (A) (A) (A) (A) (A) (A) (A) (A)
                 (A) (A) (A) (A) (A) (A) (A) (A) (A) (A) (A) (A)
                 (A) (A) (A) (A) (A) (A) (A) (A) (A) (A) (A) (A)
                 (A) (A) (A) (A) (A) (A) (A) (A) (A) (A) (A) (A)
                 (A) (A) (A) (A) (A) (A) (A) (A) (A) (A) (A) (A)
                 (A) (A) (A) (A) (A) (A) (A) (A) (A) (A) (A) (A)
                 (A) (A) (A) (A) (A) (A) (A) (A) (A) (A) (A) (A)
                 (A) (A) (A) (A) (A) (A) (A) (A) (A) (A) (A) (A)
                 (A) (A) (A) (A) (A) (A) (A) (A) (A) (A) (A) (A)
                 (A) (A) (A) (A) (A) (A) (A) (A) (A) (A) (A) (A)
                 (A) (A) (A) (A) (A) (A) (A) (A) (A) (A) (A) (A)
                 (A) (A) (A) (A) (A) (A) (A) (A) (A) (A) (A) (A)
                 (A) (A) (A) (A) (A) (A) (A) (A) (A) (A) (A) (A)
                 (A) (A) (A) (A) (A) (A) (A) (A) (A) (A) (A) (A)
                 (A) (A) (A) (A) (A) (A) (A) (A) (A) (A) (A) (A)
                 (A) (A) (A) (A) (A) (A) (A) (A) (A) (A) (A) (A)
                 (A) (A) (A) (A) (A) (A) (A) (A) (A) (A) (A) (A)
                 (A) (A) (A) (A) (A) (A) (A) (A) (A) (A) (A) (A)
                 (A) (A) (A) (A) (A) (A) (A) (A) (A) (A) (A) (A)
                 (A) (A) (A) (A) (A) (A) (A) (A) (A) (A) (A) (A)
                 (A) (A) (A) (A) (A) (A) (A) (A) (A) (A) (A) (A)
                 (A) (A) (A) (A) (A) (A) (A) (A) (A) (A) (A) (A)
                 (A) (A) (A) (A) (A) (A) (A) (A) (A) (A) (A) (A)
                 (A) (A) (A) (A) (A) (A) (A) (A) (A) (A) (A) (A)
                 (A) (A) (A) (A) (A) (A) (A) (A) (A) (A) (A) (A)
                 (A) (A) (A) (A) (A) (A) (A) (A) (A) (A) (A) (A)
                 (A) (A) (A) (A) (A) (A) (A) (A) (A) (A) (A) (A)
                 (A) (A) (A) (A) (A) (A) (A) (A) (A) (A) (A) (A)
                 (A) (A) (A) (A) (A) (A) (A) (A) (A) (A) (A) (A)
                 (A) (A) (A) (A) (A) (A) (A) (A) (A) (A) (A) (A)
                 (A) (A) (A) (A) (A) (A) (A) (A) (A) (A) (A) (A)
                 (A) (A) (A) (A) (A) (A) (A) (A) (A) (A) (A) (A)
                 (A) (A) (A) (A) (A) (A) (A) (A) (A) (A) (A) (A)
                 (A) (A) (A) (A) (A) (A) (A) (A) (A) (A) (A) (A)
                 (A) (A) (A) (A) (A) (A) (A) (A) (A) (A) (A) (A)
                 (A) (A) (A) (A) (A) (A) (A) (A) (A) (A) (A) (A)
                 (A) (A) (A) (A) (A) (A) (A) (A) (A) (A) (A) (A)
                 (A) (A) (A) (A) (A) (A) (A) (A) (A) (A) (A) (A)
                 (A) (A) (A) (A) (A) (A) (A) (A) (A) (A) (A) (A)
                 (A) (A) (A) (A) (A) (A) (A) (A) (A) (A) (A) (A)
                 (A) (A) (A) (A) (A) (A) (A) (A) (A) (A) (A) (A)
                 (A) (A) (A) (A) (A) (A) (A) (A) (A) (A) (A) (A)
                 (A) (A) (A) (A) (A) (A) (A) (A) (A) (A) (A) (A)
                 (A) (A) (A) (A) (A) (A) (A) (A) (A) (A) (A) (A)
                 (A) (A) (A) (A) (A) (A) (A) (A) (A) (A) (A) (A)
                 (A) (A) (A) (A) (A) (A) (A) (A) (A) (A) (A) (A)
                 (A) (A) (A) (A) (A) (A) (A) (A) (A) (A) (A) (A)
                 (A) (A) (A) (A) (A) (A) (A) (A) (A) (A) (A) (A)
                 (A) (A) (A) (A) (A) (A) (A) (A) (A) (A) (A) (A)
                 (A) (A) (A) (A) (A) (A) (A) (A) (A) (A) (A) (A)
                 (A) (A) (A) (A) (A) (A) (A) (A) (A) (A) (A) (A)
                 (A) (A) (A) (A) (A) (A) (A) (A) (A) (A) (A) (A)
                 (A) (A) (A) (A) (A) (A) (A) (A) (A) (A) (A) (A)
                 (A) (A) (A) (A) (A) (A) (A) (A) (A) (A) (A) (A)
                 (A) (A) (A) (A) (A) (A) (A) (A) (A) (A) (A) (A)
                 (A) (A) (A) (A) (A) (A) (A) (A) (A) (A) (A) (A)
                 (A) (A) (A) (A) (A) (A) (A) (A) (A) (A) (A) (A)
                 (A) (A) (A) (A) (A) (A) (A) (A) (A) (A) (A) (A)
                 (A) (A) (A) (A) (A) (A) (A) (A) (A) (A) (A) (A)
                 (A) (A) (A) (A) (A) (A) (A) (A) (A) (A) (A) (A)
                 (A) (A) (A) (A) (A) (A) (A) (A) (A) (A) (A) (A)
                 (A) (A) (A) (A) (A) (A) (A) (A) (A) (A) (A) (A)
                 (A) (A) (A) (A) (A) (A) (A) (A) (A) (A) (A) (A)
                 (A) (A) (A) (A) (A) (A) (A) (A) (A) (A) (A) (A)
                 (A) (A) (A) (A) (A) (A) (A) (A) (A) (A) (A) (A)
                 (A) (A) (A) (A) (A) (A) (A) (A) (A) (A) (A) (A)
                 (A) (A) (A) (A) (A) (A) (A) (A) (A) (A) (A) (A)
                 (A) (A) (A) (A) (A) (A) (A) (A) (A) (A) (A) (A)
                 (A) (A) (A) (A) (A) (A) (A) (A) (A) (A) (A) (A)
                 (A) (A) (A) (A) (A) (A) (A) (A) (A) (A) (A) (A)
                 (A) (A) (A) (A) (A) (A) (A) (A) (A) (A) (A) (A)
                 (A) (A) (A) (A) (A) (A) (A) (A) (A) (A) (A) (A)
                 (A) (A) (A) (A) (A) (A) (A) (A) (A) (A) (A) (A)
                 (A) (A) (A) (A) (A) (A) (A) (A) (A) (A) (A) (A)
                 (A) (A) (A) (A) (A) (A) (A) (A) (A) (A) (A) (A)
                 (A) (A) (A) (A) (A) (A) (A) (A) (A) (A) (A) (A)
                 (A) (A) (A) (A) (A) (A) (A) (A) (A) (A) (A) (A)
                 (A) (A) (A) (A) (A) (A) (A) (A) (A) (A) (A) (A)
                 (A) (A) (A) (A) (A) (A) (A) (A) (A) (A) (A) (A)
                 (A) (A) (A) (A) (A) (A) (A) (A) (A) (A) (A) (A)
                 (A) (A) (A) (A) (A) (A) (A) (A) (A) (A) (A) (A)
                 (A) (A) (A) (A) (A) (A) (A) (A) (A) (A) (A) (A)
                 (A) (A) (A) (A) (A) (A) (A) (A) (A) (A) (A) (A)
                 (A) (A) (A) (A) (A) (A) (A) (A) (A) (A) (A) (A)
                 (A) (A) (A) (A) (A) (A) (A) (A) (A) (A) (A) (A)
                 (A) (A) (A) (A) (A) (A) (A) (A) (A) (A) (A) (A)
                 (A) (A) (A) (A) (A) (A) (A) (A) (A) (A) (A) (A)
                 (A) (A) (A) (A) (A) (A) (A) (A) (A) (A) (A) (A)
                 (A) (A) (A) (A) (A) (A) (A) (A) (A) (A) (A) (A)
                 (A) (A) (A) (A) (A) (A) (A) (A) (A) (A) (A) (A)
                 (A) (A) (A) (A) (A) (A) (A) (A) (A) (A) (A) (A)
                 (A) (A) (A) (A) (A) (A) (A) (A) (A) (A) (A) (A)
                 (A) (A) (A) (A) (A) (A) (A) (A) (A) (A) (A) (A)
                 (A) (A) (A) (A) (A) (A) (A) (A) (A) (A) (A) (A)
                 (A) (A) (A) (A) (A) (A) (A) (A) (A) (A) (A) (A)
                 (A) (A) (A) (A) (A) (A) (A) (A) (A) (A) (A) (A)
                 (A) (A) (A) (A) (A) (A) (A) (A) (A) (A) (A) (A)
                 (A) (A) (A) (A) (A) (A) (A) (A) (A) (A) (A) (A)
                 (A) (A) (A) (A) (A) (A) (A) (A) (A) (A) (A) (A)
                 (A) (A) (A) (A) (A) (A) (A) (A) (A) (A) (A) (A)
                 (A) (A) (A) (A) (A) (A) (A) (A) (A) (A) (A) (A)
                 (A) (A) (A) (A) (A) (A) (A) (A) (A) (A) (A) (A)
                 (A) (A) (A) (A) (A) (A) (A) (A) (A) (A) (A) (A)
                 (A) (A) (A) (A) (A) (A) (A) (A) (A) (A) (A) (A)
                 (A) (A) (A) (A) (A) (A) (A) (A) (A) (A) (A) (A)
                 (A) (A) (A) (A) (A) (A) (A) (A) (A) (A) (A) (A)
                 (A) (A) (A) (A) (A) (A) (A) (A) (A) (A) (A) (A)
                 (A) (A) (A) (A) (A) (A) (A) (A) (A) (A) (A) (A)
                 (A) (A) (A) (A) (A) (A) (A) (A) (A) (A) (A) (A)
                 (A) (A) (A) (A) (A) (A) (A) (A) (A) (A) (A) (A)
                 (A) (A) (A) (A) (A) (A) (A) (A) (A) (A) (A) (A)
                 (A) (A) (A) (A) (A) (A) (A)
 The electronic state is 1-A.
 Alpha  occ. eigenvalues --  -88.93995 -88.93724 -88.93549 -88.92746 -19.20817
 Alpha  occ. eigenvalues --  -19.20779 -19.18649 -19.18602 -19.15297 -19.15264
 Alpha  occ. eigenvalues --  -14.36921 -14.34540 -10.34048 -10.33611 -10.26760
 Alpha  occ. eigenvalues --  -10.25472 -10.25465 -10.25419 -10.25188 -10.25134
 Alpha  occ. eigenvalues --  -10.24716 -10.24575 -10.24503 -10.24362 -10.24313
 Alpha  occ. eigenvalues --  -10.24209 -10.24055 -10.23940 -10.23884 -10.23789
 Alpha  occ. eigenvalues --  -10.23171 -10.22981 -10.22931 -10.22900 -10.22753
 Alpha  occ. eigenvalues --  -10.22356 -10.21813 -10.20957 -10.20849 -10.20802
 Alpha  occ. eigenvalues --  -10.20224 -10.20004 -10.20000 -10.19801 -10.19749
 Alpha  occ. eigenvalues --  -10.19748 -10.19727 -10.19618 -10.19551 -10.19382
 Alpha  occ. eigenvalues --  -10.19373 -10.19357 -10.19343 -10.18753 -10.18736
 Alpha  occ. eigenvalues --   -7.99994  -7.99652  -7.99460  -7.98687  -5.96345
 Alpha  occ. eigenvalues --   -5.95995  -5.95960  -5.95823  -5.95636  -5.95584
 Alpha  occ. eigenvalues --   -5.95445  -5.95252  -5.95027  -5.95025  -5.94669
 Alpha  occ. eigenvalues --   -5.94292  -1.12698  -1.12288  -1.07896  -1.07854
 Alpha  occ. eigenvalues --   -1.04629  -1.04171  -0.97694  -0.94170  -0.93216
 Alpha  occ. eigenvalues --   -0.92640  -0.89783  -0.87891  -0.87215  -0.86906
 Alpha  occ. eigenvalues --   -0.85583  -0.84897  -0.83649  -0.80293  -0.79121
 Alpha  occ. eigenvalues --   -0.77805  -0.77626  -0.77234  -0.76368  -0.76340
 Alpha  occ. eigenvalues --   -0.76030  -0.75499  -0.74913  -0.74396  -0.74034
 Alpha  occ. eigenvalues --   -0.73110  -0.71253  -0.70879  -0.70051  -0.69355
 Alpha  occ. eigenvalues --   -0.67226  -0.65256  -0.64175  -0.64048  -0.63673
 Alpha  occ. eigenvalues --   -0.62955  -0.62547  -0.62183  -0.61094  -0.60484
 Alpha  occ. eigenvalues --   -0.59265  -0.58324  -0.57447  -0.57241  -0.56137
 Alpha  occ. eigenvalues --   -0.55907  -0.55351  -0.55060  -0.54923  -0.53959
 Alpha  occ. eigenvalues --   -0.53362  -0.52433  -0.51833  -0.50913  -0.50163
 Alpha  occ. eigenvalues --   -0.49951  -0.49829  -0.49285  -0.48763  -0.48251
 Alpha  occ. eigenvalues --   -0.47993  -0.47522  -0.47474  -0.47270  -0.47140
 Alpha  occ. eigenvalues --   -0.46788  -0.45755  -0.45693  -0.45565  -0.45388
 Alpha  occ. eigenvalues --   -0.45104  -0.44775  -0.44313  -0.43826  -0.43629
 Alpha  occ. eigenvalues --   -0.43497  -0.43375  -0.43349  -0.42951  -0.42739
 Alpha  occ. eigenvalues --   -0.42420  -0.41972  -0.41920  -0.41759  -0.41412
 Alpha  occ. eigenvalues --   -0.41248  -0.40548  -0.40319  -0.39880  -0.39811
 Alpha  occ. eigenvalues --   -0.39559  -0.39319  -0.39084  -0.39023  -0.38672
 Alpha  occ. eigenvalues --   -0.38361  -0.38258  -0.38113  -0.37571  -0.37355
 Alpha  occ. eigenvalues --   -0.37326  -0.36929  -0.36694  -0.36190  -0.36102
 Alpha  occ. eigenvalues --   -0.35902  -0.35076  -0.34762  -0.34508  -0.34391
 Alpha  occ. eigenvalues --   -0.34173  -0.33922  -0.33858  -0.33813  -0.33643
 Alpha  occ. eigenvalues --   -0.33602  -0.32407  -0.31483  -0.30465  -0.30296
 Alpha  occ. eigenvalues --   -0.29143  -0.28476  -0.27610  -0.27429  -0.26824
 Alpha  occ. eigenvalues --   -0.26758  -0.26737  -0.26516  -0.25703  -0.24091
 Alpha  occ. eigenvalues --   -0.23528  -0.20551  -0.18368
 Alpha virt. eigenvalues --   -0.11744  -0.08568  -0.06333  -0.03913  -0.03321
 Alpha virt. eigenvalues --   -0.02434  -0.02158  -0.01888  -0.01693  -0.01692
 Alpha virt. eigenvalues --   -0.01360  -0.01124  -0.00988  -0.00860  -0.00610
 Alpha virt. eigenvalues --   -0.00443  -0.00374  -0.00015   0.00169   0.00465
 Alpha virt. eigenvalues --    0.00619   0.00853   0.00961   0.01028   0.01144
 Alpha virt. eigenvalues --    0.01298   0.01545   0.01654   0.01727   0.01844
 Alpha virt. eigenvalues --    0.02026   0.02113   0.02259   0.02481   0.02590
 Alpha virt. eigenvalues --    0.02727   0.02818   0.02916   0.03116   0.03199
 Alpha virt. eigenvalues --    0.03249   0.03311   0.03652   0.03843   0.03879
 Alpha virt. eigenvalues --    0.04101   0.04291   0.04400   0.04556   0.04687
 Alpha virt. eigenvalues --    0.04796   0.04960   0.05205   0.05239   0.05379
 Alpha virt. eigenvalues --    0.05430   0.05608   0.05664   0.06055   0.06153
 Alpha virt. eigenvalues --    0.06436   0.06462   0.06729   0.06891   0.07026
 Alpha virt. eigenvalues --    0.07094   0.07253   0.07406   0.07653   0.07710
 Alpha virt. eigenvalues --    0.07909   0.08027   0.08171   0.08349   0.08519
 Alpha virt. eigenvalues --    0.08555   0.08606   0.08681   0.08827   0.08967
 Alpha virt. eigenvalues --    0.09088   0.09169   0.09209   0.09333   0.09400
 Alpha virt. eigenvalues --    0.09441   0.09578   0.09677   0.09806   0.09920
 Alpha virt. eigenvalues --    0.10046   0.10086   0.10137   0.10287   0.10398
 Alpha virt. eigenvalues --    0.10460   0.10563   0.10632   0.10790   0.10901
 Alpha virt. eigenvalues --    0.11007   0.11167   0.11204   0.11272   0.11275
 Alpha virt. eigenvalues --    0.11352   0.11398   0.11626   0.11729   0.11865
 Alpha virt. eigenvalues --    0.11917   0.12082   0.12167   0.12256   0.12365
 Alpha virt. eigenvalues --    0.12495   0.12631   0.12657   0.12796   0.12920
 Alpha virt. eigenvalues --    0.12988   0.13105   0.13246   0.13366   0.13420
 Alpha virt. eigenvalues --    0.13516   0.13619   0.13831   0.13916   0.14053
 Alpha virt. eigenvalues --    0.14093   0.14179   0.14321   0.14349   0.14519
 Alpha virt. eigenvalues --    0.14651   0.14729   0.14809   0.14919   0.14955
 Alpha virt. eigenvalues --    0.15103   0.15266   0.15427   0.15459   0.15534
 Alpha virt. eigenvalues --    0.15636   0.15842   0.15941   0.15989   0.16094
 Alpha virt. eigenvalues --    0.16143   0.16402   0.16473   0.16555   0.16691
 Alpha virt. eigenvalues --    0.16864   0.16932   0.17166   0.17260   0.17359
 Alpha virt. eigenvalues --    0.17482   0.17624   0.17723   0.17979   0.18161
 Alpha virt. eigenvalues --    0.18304   0.18317   0.18518   0.18547   0.18718
 Alpha virt. eigenvalues --    0.18877   0.19031   0.19175   0.19301   0.19516
 Alpha virt. eigenvalues --    0.19663   0.19857   0.20134   0.20213   0.20302
 Alpha virt. eigenvalues --    0.20407   0.20529   0.20703   0.20712   0.20852
 Alpha virt. eigenvalues --    0.21062   0.21154   0.21191   0.21380   0.21487
 Alpha virt. eigenvalues --    0.21632   0.21684   0.21759   0.21849   0.21973
 Alpha virt. eigenvalues --    0.22065   0.22222   0.22299   0.22448   0.22556
 Alpha virt. eigenvalues --    0.22638   0.22734   0.22907   0.23007   0.23145
 Alpha virt. eigenvalues --    0.23252   0.23356   0.23418   0.23631   0.23752
 Alpha virt. eigenvalues --    0.23918   0.23941   0.24080   0.24101   0.24256
 Alpha virt. eigenvalues --    0.24333   0.24477   0.24557   0.24694   0.24717
 Alpha virt. eigenvalues --    0.24935   0.24963   0.25072   0.25202   0.25326
 Alpha virt. eigenvalues --    0.25486   0.25550   0.25606   0.25771   0.25812
 Alpha virt. eigenvalues --    0.25944   0.26121   0.26216   0.26280   0.26373
 Alpha virt. eigenvalues --    0.26514   0.26523   0.26666   0.26772   0.26813
 Alpha virt. eigenvalues --    0.26938   0.27048   0.27057   0.27282   0.27453
 Alpha virt. eigenvalues --    0.27463   0.27551   0.27717   0.27760   0.27844
 Alpha virt. eigenvalues --    0.27936   0.28006   0.28137   0.28257   0.28316
 Alpha virt. eigenvalues --    0.28423   0.28443   0.28565   0.28623   0.28762
 Alpha virt. eigenvalues --    0.28930   0.29068   0.29278   0.29327   0.29353
 Alpha virt. eigenvalues --    0.29557   0.29679   0.29744   0.29828   0.30059
 Alpha virt. eigenvalues --    0.30156   0.30179   0.30427   0.30485   0.30569
 Alpha virt. eigenvalues --    0.30706   0.30722   0.30863   0.31068   0.31091
 Alpha virt. eigenvalues --    0.31160   0.31241   0.31393   0.31571   0.31596
 Alpha virt. eigenvalues --    0.31758   0.31923   0.31964   0.32024   0.32074
 Alpha virt. eigenvalues --    0.32142   0.32209   0.32399   0.32489   0.32599
 Alpha virt. eigenvalues --    0.32721   0.32908   0.33016   0.33098   0.33429
 Alpha virt. eigenvalues --    0.33456   0.33527   0.33688   0.33867   0.33892
 Alpha virt. eigenvalues --    0.34073   0.34311   0.34415   0.34471   0.34735
 Alpha virt. eigenvalues --    0.34867   0.35042   0.35169   0.35217   0.35267
 Alpha virt. eigenvalues --    0.35431   0.35559   0.35651   0.35856   0.35957
 Alpha virt. eigenvalues --    0.36038   0.36128   0.36215   0.36445   0.36613
 Alpha virt. eigenvalues --    0.36802   0.36902   0.36972   0.37139   0.37248
 Alpha virt. eigenvalues --    0.37393   0.37481   0.37689   0.37790   0.37823
 Alpha virt. eigenvalues --    0.37967   0.38067   0.38274   0.38547   0.38599
 Alpha virt. eigenvalues --    0.38779   0.38806   0.38982   0.39201   0.39272
 Alpha virt. eigenvalues --    0.39417   0.39560   0.39793   0.39911   0.39958
 Alpha virt. eigenvalues --    0.40001   0.40218   0.40272   0.40401   0.40625
 Alpha virt. eigenvalues --    0.40877   0.41088   0.41198   0.41287   0.41551
 Alpha virt. eigenvalues --    0.41677   0.41931   0.42103   0.42328   0.42471
 Alpha virt. eigenvalues --    0.42682   0.42867   0.42885   0.42979   0.43323
 Alpha virt. eigenvalues --    0.43366   0.43540   0.43785   0.43981   0.44104
 Alpha virt. eigenvalues --    0.44266   0.44434   0.44575   0.44749   0.44831
 Alpha virt. eigenvalues --    0.44961   0.45343   0.45427   0.45643   0.45729
 Alpha virt. eigenvalues --    0.45940   0.46142   0.46320   0.46539   0.46670
 Alpha virt. eigenvalues --    0.46737   0.46981   0.47082   0.47280   0.47360
 Alpha virt. eigenvalues --    0.47515   0.47644   0.47765   0.47891   0.48057
 Alpha virt. eigenvalues --    0.48245   0.48277   0.48755   0.48767   0.49037
 Alpha virt. eigenvalues --    0.49112   0.49369   0.49408   0.49495   0.49727
 Alpha virt. eigenvalues --    0.49889   0.49928   0.50148   0.50265   0.50405
 Alpha virt. eigenvalues --    0.50525   0.50722   0.50889   0.51108   0.51353
 Alpha virt. eigenvalues --    0.51539   0.51577   0.51791   0.51979   0.52063
 Alpha virt. eigenvalues --    0.52206   0.52242   0.52482   0.52590   0.52786
 Alpha virt. eigenvalues --    0.52958   0.53270   0.53369   0.53551   0.53685
 Alpha virt. eigenvalues --    0.53768   0.53873   0.53964   0.54108   0.54341
 Alpha virt. eigenvalues --    0.54522   0.54688   0.54781   0.54928   0.54987
 Alpha virt. eigenvalues --    0.55231   0.55264   0.55426   0.55519   0.55567
 Alpha virt. eigenvalues --    0.55718   0.55970   0.56131   0.56253   0.56403
 Alpha virt. eigenvalues --    0.56486   0.56558   0.56599   0.56731   0.56763
 Alpha virt. eigenvalues --    0.56919   0.57131   0.57291   0.57353   0.57559
 Alpha virt. eigenvalues --    0.57586   0.57716   0.57791   0.57962   0.58206
 Alpha virt. eigenvalues --    0.58256   0.58437   0.58538   0.58748   0.58937
 Alpha virt. eigenvalues --    0.59028   0.59213   0.59368   0.59601   0.59673
 Alpha virt. eigenvalues --    0.59766   0.59836   0.60053   0.60229   0.60310
 Alpha virt. eigenvalues --    0.60391   0.60688   0.60719   0.60982   0.61125
 Alpha virt. eigenvalues --    0.61143   0.61329   0.61560   0.61725   0.61830
 Alpha virt. eigenvalues --    0.62160   0.62228   0.62439   0.62617   0.62689
 Alpha virt. eigenvalues --    0.62815   0.62900   0.63099   0.63124   0.63421
 Alpha virt. eigenvalues --    0.63462   0.63619   0.63656   0.63895   0.64034
 Alpha virt. eigenvalues --    0.64120   0.64234   0.64522   0.64570   0.64712
 Alpha virt. eigenvalues --    0.64794   0.64966   0.65084   0.65243   0.65252
 Alpha virt. eigenvalues --    0.65437   0.65549   0.65554   0.65691   0.65864
 Alpha virt. eigenvalues --    0.66084   0.66199   0.66353   0.66529   0.66584
 Alpha virt. eigenvalues --    0.66729   0.66802   0.66993   0.67114   0.67233
 Alpha virt. eigenvalues --    0.67364   0.67480   0.67553   0.67794   0.67908
 Alpha virt. eigenvalues --    0.67982   0.68257   0.68448   0.68555   0.68657
 Alpha virt. eigenvalues --    0.68680   0.68876   0.68997   0.69084   0.69258
 Alpha virt. eigenvalues --    0.69454   0.69482   0.69700   0.69811   0.69883
 Alpha virt. eigenvalues --    0.70093   0.70179   0.70314   0.70461   0.70686
 Alpha virt. eigenvalues --    0.70813   0.70997   0.71101   0.71297   0.71498
 Alpha virt. eigenvalues --    0.71710   0.71902   0.72042   0.72317   0.72455
 Alpha virt. eigenvalues --    0.72654   0.72750   0.72976   0.73074   0.73241
 Alpha virt. eigenvalues --    0.73368   0.73680   0.73941   0.74085   0.74264
 Alpha virt. eigenvalues --    0.74424   0.74806   0.74930   0.75146   0.75293
 Alpha virt. eigenvalues --    0.75488   0.75674   0.75791   0.75863   0.75988
 Alpha virt. eigenvalues --    0.76264   0.76496   0.76571   0.76746   0.76905
 Alpha virt. eigenvalues --    0.77053   0.77314   0.77387   0.77560   0.77673
 Alpha virt. eigenvalues --    0.77855   0.77926   0.78056   0.78199   0.78433
 Alpha virt. eigenvalues --    0.78457   0.78725   0.78918   0.79059   0.79371
 Alpha virt. eigenvalues --    0.79473   0.79789   0.79955   0.80103   0.80391
 Alpha virt. eigenvalues --    0.80546   0.80740   0.80797   0.81030   0.81183
 Alpha virt. eigenvalues --    0.81270   0.81327   0.81618   0.81807   0.81869
 Alpha virt. eigenvalues --    0.82020   0.82158   0.82423   0.82498   0.82742
 Alpha virt. eigenvalues --    0.82987   0.83099   0.83186   0.83397   0.83426
 Alpha virt. eigenvalues --    0.83789   0.83970   0.84243   0.84479   0.84767
 Alpha virt. eigenvalues --    0.84988   0.85213   0.85306   0.85332   0.85625
 Alpha virt. eigenvalues --    0.85659   0.85828   0.86081   0.86228   0.86302
 Alpha virt. eigenvalues --    0.86507   0.86571   0.86746   0.86932   0.87180
 Alpha virt. eigenvalues --    0.87397   0.87680   0.87859   0.88122   0.88222
 Alpha virt. eigenvalues --    0.88526   0.88928   0.89110   0.89199   0.89231
 Alpha virt. eigenvalues --    0.89602   0.89934   0.90048   0.90220   0.90540
 Alpha virt. eigenvalues --    0.90768   0.91341   0.91392   0.91567   0.91954
 Alpha virt. eigenvalues --    0.92048   0.92370   0.92506   0.92624   0.92871
 Alpha virt. eigenvalues --    0.93251   0.93358   0.93773   0.93958   0.94317
 Alpha virt. eigenvalues --    0.94641   0.94942   0.95200   0.95209   0.95422
 Alpha virt. eigenvalues --    0.95638   0.96068   0.96152   0.96623   0.96893
 Alpha virt. eigenvalues --    0.96962   0.97499   0.97547   0.97569   0.97903
 Alpha virt. eigenvalues --    0.98290   0.98465   0.98919   0.99084   0.99383
 Alpha virt. eigenvalues --    0.99519   0.99798   1.00014   1.00137   1.00244
 Alpha virt. eigenvalues --    1.00532   1.00565   1.00984   1.01155   1.01246
 Alpha virt. eigenvalues --    1.01315   1.01578   1.02095   1.02380   1.02558
 Alpha virt. eigenvalues --    1.02620   1.03047   1.03215   1.03558   1.03646
 Alpha virt. eigenvalues --    1.03964   1.04306   1.04444   1.04594   1.05028
 Alpha virt. eigenvalues --    1.05281   1.05730   1.05922   1.06145   1.06345
 Alpha virt. eigenvalues --    1.06868   1.06955   1.07263   1.07411   1.07563
 Alpha virt. eigenvalues --    1.07689   1.08132   1.08840   1.09034   1.09199
 Alpha virt. eigenvalues --    1.09537   1.09681   1.09936   1.10028   1.10495
 Alpha virt. eigenvalues --    1.10671   1.10998   1.11339   1.11469   1.11667
 Alpha virt. eigenvalues --    1.11710   1.12110   1.12274   1.12834   1.13021
 Alpha virt. eigenvalues --    1.13447   1.13587   1.13836   1.14080   1.14262
 Alpha virt. eigenvalues --    1.14594   1.14783   1.15409   1.15486   1.15805
 Alpha virt. eigenvalues --    1.15977   1.16279   1.16556   1.16628   1.17178
 Alpha virt. eigenvalues --    1.17894   1.18080   1.18471   1.18507   1.18835
 Alpha virt. eigenvalues --    1.18970   1.19703   1.19989   1.20091   1.20196
 Alpha virt. eigenvalues --    1.20822   1.20933   1.21329   1.21490   1.22292
 Alpha virt. eigenvalues --    1.22654   1.22803   1.22958   1.23362   1.24012
 Alpha virt. eigenvalues --    1.24432   1.24784   1.25101   1.25662   1.25754
 Alpha virt. eigenvalues --    1.26429   1.26922   1.27353   1.27601   1.27879
 Alpha virt. eigenvalues --    1.28167   1.28522   1.28768   1.29076   1.29194
 Alpha virt. eigenvalues --    1.29602   1.29950   1.30340   1.30674   1.30994
 Alpha virt. eigenvalues --    1.31053   1.31227   1.31517   1.31887   1.32014
 Alpha virt. eigenvalues --    1.32051   1.32445   1.32854   1.33432   1.33623
 Alpha virt. eigenvalues --    1.33902   1.34038   1.34164   1.34666   1.34933
 Alpha virt. eigenvalues --    1.35376   1.35657   1.36053   1.36322   1.36592
 Alpha virt. eigenvalues --    1.36712   1.37372   1.37763   1.37947   1.38201
 Alpha virt. eigenvalues --    1.38418   1.38658   1.38997   1.39112   1.39176
 Alpha virt. eigenvalues --    1.39923   1.40030   1.40474   1.40810   1.41010
 Alpha virt. eigenvalues --    1.41315   1.41696   1.41879   1.41965   1.42463
 Alpha virt. eigenvalues --    1.42853   1.43055   1.43273   1.43699   1.43730
 Alpha virt. eigenvalues --    1.44175   1.44382   1.44700   1.44786   1.45048
 Alpha virt. eigenvalues --    1.45326   1.45585   1.45902   1.46250   1.46647
 Alpha virt. eigenvalues --    1.46797   1.47061   1.47386   1.47541   1.47667
 Alpha virt. eigenvalues --    1.47919   1.48242   1.48311   1.48511   1.48875
 Alpha virt. eigenvalues --    1.48999   1.49092   1.49408   1.49620   1.49676
 Alpha virt. eigenvalues --    1.49864   1.49994   1.50282   1.50534   1.50718
 Alpha virt. eigenvalues --    1.51033   1.51138   1.51233   1.51779   1.51919
 Alpha virt. eigenvalues --    1.52207   1.52368   1.52608   1.52731   1.52910
 Alpha virt. eigenvalues --    1.53098   1.53393   1.53637   1.53869   1.54002
 Alpha virt. eigenvalues --    1.54216   1.54393   1.54513   1.54779   1.54961
 Alpha virt. eigenvalues --    1.55315   1.55456   1.55759   1.55890   1.56202
 Alpha virt. eigenvalues --    1.56463   1.56727   1.56739   1.57027   1.57189
 Alpha virt. eigenvalues --    1.57443   1.57650   1.57702   1.58024   1.58208
 Alpha virt. eigenvalues --    1.58627   1.58865   1.59368   1.59454   1.59659
 Alpha virt. eigenvalues --    1.59842   1.60224   1.60232   1.60495   1.60832
 Alpha virt. eigenvalues --    1.61194   1.61409   1.61952   1.61985   1.62278
 Alpha virt. eigenvalues --    1.62513   1.62673   1.62774   1.62865   1.63488
 Alpha virt. eigenvalues --    1.63663   1.63795   1.63862   1.63975   1.64421
 Alpha virt. eigenvalues --    1.64570   1.64857   1.65033   1.65070   1.65202
 Alpha virt. eigenvalues --    1.65365   1.65433   1.65681   1.66055   1.66172
 Alpha virt. eigenvalues --    1.66465   1.66525   1.66559   1.66978   1.67223
 Alpha virt. eigenvalues --    1.67310   1.67769   1.68236   1.68493   1.68716
 Alpha virt. eigenvalues --    1.68844   1.68944   1.69151   1.69737   1.69905
 Alpha virt. eigenvalues --    1.70770   1.70839   1.71126   1.71273   1.71364
 Alpha virt. eigenvalues --    1.71961   1.72259   1.72505   1.72591   1.73028
 Alpha virt. eigenvalues --    1.73196   1.73566   1.73715   1.74119   1.74330
 Alpha virt. eigenvalues --    1.74545   1.74793   1.75049   1.75091   1.75257
 Alpha virt. eigenvalues --    1.75727   1.76055   1.76645   1.76831   1.77232
 Alpha virt. eigenvalues --    1.77652   1.78021   1.78423   1.78648   1.79355
 Alpha virt. eigenvalues --    1.79680   1.80210   1.80331   1.80515   1.80685
 Alpha virt. eigenvalues --    1.80971   1.81299   1.81543   1.82104   1.82285
 Alpha virt. eigenvalues --    1.82823   1.82971   1.83308   1.83458   1.84276
 Alpha virt. eigenvalues --    1.84698   1.84822   1.84874   1.85003   1.85704
 Alpha virt. eigenvalues --    1.85924   1.85954   1.86461   1.86908   1.87095
 Alpha virt. eigenvalues --    1.87404   1.87718   1.87745   1.87995   1.88210
 Alpha virt. eigenvalues --    1.88564   1.88863   1.88959   1.89153   1.89547
 Alpha virt. eigenvalues --    1.90001   1.90312   1.90536   1.90819   1.90976
 Alpha virt. eigenvalues --    1.91510   1.91535   1.91688   1.92077   1.92281
 Alpha virt. eigenvalues --    1.92625   1.93023   1.93299   1.93512   1.93741
 Alpha virt. eigenvalues --    1.94023   1.94302   1.94409   1.94652   1.95039
 Alpha virt. eigenvalues --    1.95490   1.95656   1.95882   1.96331   1.96664
 Alpha virt. eigenvalues --    1.97008   1.97163   1.97239   1.97479   1.97779
 Alpha virt. eigenvalues --    1.98134   1.98365   1.98470   1.98593   1.98951
 Alpha virt. eigenvalues --    1.99491   2.00115   2.00333   2.00519   2.00984
 Alpha virt. eigenvalues --    2.01248   2.01545   2.01790   2.01927   2.02118
 Alpha virt. eigenvalues --    2.02277   2.02543   2.02698   2.02985   2.03246
 Alpha virt. eigenvalues --    2.03762   2.04043   2.04236   2.04538   2.04890
 Alpha virt. eigenvalues --    2.05062   2.05276   2.05633   2.05807   2.05984
 Alpha virt. eigenvalues --    2.06295   2.06711   2.07334   2.07551   2.07646
 Alpha virt. eigenvalues --    2.08087   2.08109   2.08472   2.09099   2.09217
 Alpha virt. eigenvalues --    2.09530   2.09853   2.10434   2.10673   2.11174
 Alpha virt. eigenvalues --    2.11387   2.11613   2.11917   2.12061   2.12257
 Alpha virt. eigenvalues --    2.12833   2.13208   2.13499   2.13573   2.13895
 Alpha virt. eigenvalues --    2.14292   2.14486   2.14643   2.15064   2.15430
 Alpha virt. eigenvalues --    2.15518   2.16253   2.16387   2.16991   2.17137
 Alpha virt. eigenvalues --    2.17739   2.18022   2.18271   2.18796   2.19392
 Alpha virt. eigenvalues --    2.19564   2.19861   2.20484   2.20597   2.21211
 Alpha virt. eigenvalues --    2.21616   2.22138   2.22790   2.23044   2.23298
 Alpha virt. eigenvalues --    2.23648   2.23780   2.24043   2.24323   2.25075
 Alpha virt. eigenvalues --    2.25542   2.25766   2.26407   2.27088   2.27563
 Alpha virt. eigenvalues --    2.28008   2.28195   2.28574   2.29210   2.29538
 Alpha virt. eigenvalues --    2.30227   2.30506   2.31770   2.32285   2.32683
 Alpha virt. eigenvalues --    2.32901   2.33856   2.34007   2.34247   2.35092
 Alpha virt. eigenvalues --    2.35470   2.35848   2.35936   2.36566   2.36793
 Alpha virt. eigenvalues --    2.36849   2.37568   2.37941   2.38234   2.38346
 Alpha virt. eigenvalues --    2.38764   2.38929   2.39005   2.39456   2.39907
 Alpha virt. eigenvalues --    2.39946   2.40523   2.41275   2.42065   2.42334
 Alpha virt. eigenvalues --    2.42594   2.43010   2.44012   2.46095   2.46339
 Alpha virt. eigenvalues --    2.46670   2.47474   2.47700   2.48015   2.48620
 Alpha virt. eigenvalues --    2.49894   2.50267   2.50549   2.51220   2.51865
 Alpha virt. eigenvalues --    2.51973   2.53512   2.53582   2.54996   2.55324
 Alpha virt. eigenvalues --    2.55434   2.56019   2.56276   2.56757   2.57823
 Alpha virt. eigenvalues --    2.59153   2.59233   2.59257   2.59626   2.60507
 Alpha virt. eigenvalues --    2.60863   2.61604   2.61758   2.61862   2.62121
 Alpha virt. eigenvalues --    2.62938   2.63145   2.63546   2.64230   2.64245
 Alpha virt. eigenvalues --    2.66510   2.66989   2.67525   2.68937   2.69364
 Alpha virt. eigenvalues --    2.69820   2.70570   2.71477   2.72418   2.72626
 Alpha virt. eigenvalues --    2.73824   2.74809   2.75424   2.75885   2.76177
 Alpha virt. eigenvalues --    2.77068   2.78182   2.79398   2.79802   2.80263
 Alpha virt. eigenvalues --    2.82083   2.83237   2.85342   2.85940   2.86607
 Alpha virt. eigenvalues --    2.88513   2.89650   2.90418   2.91921   2.92534
 Alpha virt. eigenvalues --    2.93292   2.93608   2.94146   2.94883   2.95257
 Alpha virt. eigenvalues --    2.96211   2.96739   2.99137   2.99684   3.03718
 Alpha virt. eigenvalues --    3.03809   3.04851   3.06106   3.07001   3.07473
 Alpha virt. eigenvalues --    3.07767   3.08478   3.08668   3.09523   3.10681
 Alpha virt. eigenvalues --    3.12975   3.15482   3.18425   3.21523   3.23647
 Alpha virt. eigenvalues --    3.26362   3.28108   3.30485   3.32259   3.33013
 Alpha virt. eigenvalues --    3.34412   3.35092   3.35503   3.37117   3.37960
 Alpha virt. eigenvalues --    3.39003   3.39988   3.40292   3.40708   3.40851
 Alpha virt. eigenvalues --    3.41137   3.41483   3.43024   3.43160   3.44453
 Alpha virt. eigenvalues --    3.46584   3.47941   3.48480   3.48688   3.51071
 Alpha virt. eigenvalues --    3.51248   3.51433   3.51789   3.53059   3.55336
 Alpha virt. eigenvalues --    3.55748   3.57927   3.58091   3.60323   3.60770
 Alpha virt. eigenvalues --    3.62954   3.65947   3.67049   3.69668   3.71703
 Alpha virt. eigenvalues --    3.72683   3.73131   3.75325   3.76139   3.80395
 Alpha virt. eigenvalues --    3.82371   3.82626   3.84896   3.85890   3.86412
 Alpha virt. eigenvalues --    3.88749   3.93427   3.94499   3.98309   4.03956
 Alpha virt. eigenvalues --    4.20606   4.29550   4.46352   4.73756   4.79727
 Alpha virt. eigenvalues --    4.83128
          Condensed to atoms (all electrons):
 Mulliken charges:
               1
     1  C   -0.752825
     2  C   -0.326277
     3  C   -0.348919
     4  C   -0.360824
     5  S   -0.364060
     6  C   -0.280547
     7  C    1.649109
     8  C    0.597226
     9  C    0.361085
    10  C    0.967435
    11  N    0.187741
    12  C    0.451148
    13  C    1.415487
    14  H   -1.267442
    15  C    1.021063
    16  C    0.697773
    17  C    0.281032
    18  C    1.567283
    19  H   -1.286852
    20  H   -0.977237
    21  O   -0.685298
    22  C    1.373744
    23  H   -0.215365
    24  H   -0.214985
    25  H   -0.586173
    26  H   -1.216776
    27  C    0.296626
    28  C    2.048456
    29  C    1.373530
    30  C    0.417414
    31  C    0.330274
    32  C    0.578975
    33  H   -1.203416
    34  H   -0.962148
    35  O   -0.691839
    36  C    1.366910
    37  H   -0.216998
    38  H   -0.216818
    39  H   -0.582882
    40  H   -1.220758
    41  H   -1.327198
    42  C    0.308020
    43  C    0.574929
    44  H   -1.025198
    45  H   -1.245579
    46  H   -1.253951
    47  H   -1.064263
    48  C    1.489115
    49  C   -0.269358
    50  H   -1.135328
    51  S   -0.111336
    52  C   -0.345491
    53  C    1.633590
    54  H   -1.117889
    55  C    0.475661
    56  S   -0.067960
    57  C   -0.316842
    58  C    0.082134
    59  C    0.262907
    60  C    1.752686
    61  C   -0.118632
    62  S   -0.223051
    63  C    0.136115
    64  O   -0.649018
    65  O   -0.578440
    66  C    1.343213
    67  H   -0.232465
    68  H   -0.227555
    69  H   -0.483879
    70  H   -1.081740
    71  C    0.967664
    72  C    1.381785
    73  C   -0.708496
    74  N   -0.240631
    75  C    0.492295
    76  O   -0.491101
    77  H    0.181485
    78  O   -0.572766
    79  H   -0.986029
    80  C    2.095743
    81  H   -0.300706
    82  H   -0.362496
    83  H   -0.364456
    84  C    1.702999
    85  H   -0.280682
    86  H   -0.356517
    87  H   -0.345160
 Sum of Mulliken charges =  -0.00000
 Mulliken charges with hydrogens summed into heavy atoms:
               1
     1  C   -0.752825
     2  C   -0.326277
     3  C   -0.348919
     4  C   -0.360824
     5  S   -0.364060
     6  C   -0.280547
     7  C    1.649109
     8  C   -0.467037
     9  C   -0.892866
    10  C    0.967435
    11  N    0.187741
    12  C    0.451148
    13  C    0.148045
    15  C   -0.195713
    16  C    0.697773
    17  C   -0.696205
    18  C    0.280430
    21  O   -0.685298
    22  C    0.357222
    27  C    0.296626
    28  C    0.721258
    29  C    0.152772
    30  C    0.417414
    31  C   -0.631874
    32  C   -0.624441
    35  O   -0.691839
    36  C    0.350212
    42  C   -0.937559
    43  C   -0.450269
    48  C    0.353786
    49  C   -0.269358
    51  S   -0.111336
    52  C   -0.345491
    53  C    0.515701
    55  C    0.475661
    56  S   -0.067960
    57  C   -0.316842
    58  C    0.082134
    59  C    0.262907
    60  C    0.670946
    61  C   -0.118632
    62  S   -0.223051
    63  C    0.136115
    64  O   -0.649018
    65  O   -0.578440
    66  C    0.399314
    71  C   -0.018364
    72  C    1.381785
    73  C   -0.708496
    74  N   -0.240631
    75  C    0.492295
    76  O   -0.309616
    78  O   -0.572766
    80  C    1.068085
    84  C    0.720641
 Electronic spatial extent (au):  <R**2>=         100575.8972
 Charge=             -0.0000 electrons
 Dipole moment (field-independent basis, Debye):
    X=             21.1960    Y=             -5.5162    Z=              7.3450  Tot=             23.1008
 Quadrupole moment (field-independent basis, Debye-Ang):
   XX=           -510.8680   YY=           -301.7643   ZZ=           -351.2529
   XY=              6.0138   XZ=            -34.6489   YZ=             -3.5437
 Traceless Quadrupole moment (field-independent basis, Debye-Ang):
   XX=           -122.9063   YY=             86.1975   ZZ=             36.7088
   XY=              6.0138   XZ=            -34.6489   YZ=             -3.5437
 Octapole moment (field-independent basis, Debye-Ang**2):
  XXX=           4050.9729  YYY=             67.7855  ZZZ=             34.5358  XYY=            179.2764
  XXY=            242.8789  XXZ=           1005.5139  XZZ=            102.3098  YZZ=             -8.1146
  YYZ=            109.9967  XYZ=            -51.5910
 Hexadecapole moment (field-independent basis, Debye-Ang**3):
 XXXX=        -158370.0483 YYYY=         -13254.5002 ZZZZ=          -1789.6296 XXXY=          -1864.5349
 XXXZ=          -5804.0974 YYYX=           -797.6235 YYYZ=             88.7263 ZZZX=           -192.2187
 ZZZY=             11.0941 XXYY=         -18857.3359 XXZZ=         -20781.0271 YYZZ=          -2728.2065
 XXYZ=           -383.1210 YYXZ=            209.4675 ZZXY=           -260.4889
 N-N= 7.134635100550D+03 E-N=-2.321510270160D+04  KE= 3.795225930540D+03
 1\1\GINC-CN112\SP\RB3LYP TD-FC\Aug-CC-pVDZ\C43H32N2O6S4\R2532\17-Jun-2
 021\0\\#N TD(NStates=10) B3lYP/aug-cc-pVDZ SCRF=(Solvent=TetraHydroFur
 an)\\Name\\0,1\C,0,0.937367,-3.073447,-0.186672\C,0,2.122867,-2.115248
 ,-0.081661\C,0,1.679316,-0.804099,0.068452\C,0,0.249325,-0.787165,0.07
 7728\S,0,-1.03641,0.361025,0.215518\C,0,-2.23886,-0.926149,0.055578\C,
 0,-3.663445,-0.618716,0.088081\C,0,-4.167072,0.639785,-0.284618\C,0,-5
 .523215,0.918205,-0.260048\C,0,-6.453643,-0.056471,0.14537\N,0,-7.8280
 21,0.221147,0.178165\C,0,-8.300703,1.55297,0.385806\C,0,-9.254197,2.10
 9715,-0.465769\H,0,-9.625209,1.528423,-1.30142\C,0,-9.745666,3.397532,
 -0.252908\C,0,-9.267005,4.157431,0.817016\C,0,-8.304305,3.60531,1.6726
 87\C,0,-7.836741,2.318757,1.466163\H,0,-7.103023,1.89706,2.142771\H,0,
 -7.950783,4.202556,2.504337\O,0,-9.668305,5.425275,1.114274\C,0,-10.64
 2233,6.03995,0.282435\H,0,-10.285306,6.139026,-0.748855\H,0,-11.585682
 ,5.482513,0.288556\H,0,-10.808033,7.030888,0.701547\H,0,-10.488787,3.7
 94368,-0.93121\C,0,-8.790537,-0.816003,-0.01459\C,0,-8.706892,-1.68171
 9,-1.105345\C,0,-9.647255,-2.694117,-1.294967\C,0,-10.70787,-2.83637,-
 0.396541\C,0,-10.805065,-1.960304,0.692355\C,0,-9.855745,-0.970857,0.8
 84487\H,0,-9.935782,-0.303465,1.734163\H,0,-11.631034,-2.085101,1.3819
 38\O,0,-11.686719,-3.78038,-0.489179\C,0,-11.645727,-4.694126,-1.57593
 9\H,0,-11.722954,-4.177359,-2.539191\H,0,-10.731032,-5.297522,-1.55983
 4\H,0,-12.508032,-5.346312,-1.448547\H,0,-9.548391,-3.348753,-2.150306
 \H,0,-7.894861,-1.569078,-1.813892\C,0,-5.957184,-1.318867,0.523743\C,
 0,-4.600126,-1.587169,0.494737\H,0,-4.253834,-2.557328,0.831925\H,0,-6
 .64587,-2.082701,0.860973\H,0,-5.873589,1.893646,-0.571326\H,0,-3.4863
 89,1.408137,-0.634689\C,0,-1.625489,-2.161053,-0.07841\C,0,-0.219718,-
 2.083396,-0.064821\H,0,-2.191968,-3.072577,-0.2147\S,0,2.977646,0.3220
 58,0.184968\C,0,4.162184,-0.988087,0.012416\C,0,3.51621,-2.21773,-0.11
 3955\H,0,4.06458,-3.142153,-0.244654\C,0,5.567054,-0.737299,0.045138\S
 ,0,6.680862,-2.036515,0.376555\C,0,8.117241,-1.007346,0.249715\C,0,7.6
 99721,0.298072,-0.013178\C,0,6.283611,0.455188,-0.144695\C,0,5.918293,
 1.776862,-0.543528\C,0,7.002029,2.580666,-0.716207\S,0,8.542754,1.7818
 25,-0.380001\C,0,6.929485,3.995445,-1.127359\O,0,5.9002,4.586493,-1.35
 2715\O,0,8.156994,4.542399,-1.221469\C,0,8.202058,5.929065,-1.604344\H
 ,0,7.756993,6.064628,-2.59108\H,0,7.661788,6.539691,-0.879736\H,0,9.25
 704,6.190991,-1.617581\H,0,4.914608,2.135918,-0.716605\C,0,9.37614,-1.
 65344,0.354095\C,0,10.622163,-1.158916,0.653764\C,0,10.831709,0.144243
 ,1.17759\N,0,10.995247,1.193976,1.635252\C,0,11.834467,-2.036742,0.645
 164\O,0,11.763023,-3.147544,-0.146859\H,0,11.061204,-3.044195,-0.79944
 5\O,0,12.816952,-1.818928,1.296115\H,0,9.33135,-2.730405,0.206037\C,0,
 0.917271,-3.80042,-1.548251\H,0,0.924169,-3.086302,-2.374015\H,0,1.789
 433,-4.452223,-1.648799\H,0,0.021019,-4.420217,-1.637464\C,0,0.930182,
 -4.093261,0.972236\H,0,0.947217,-3.587426,1.939546\H,0,0.0336,-4.71731
 6,0.926403\H,0,1.80217,-4.750158,0.911574\\Version=ES64L-G16RevB.01\St
 ate=1-A\HF=-3811.7633166\RMSD=8.357e-09\PG=C01 [X(C43H32N2O6S4)]\\@


 One man practicing sportsmanship is far better than 50 preaching it.
 -- Knute K. Rockne
 Job cpu time:       2 days 21 hours  7 minutes 39.9 seconds.
 Elapsed time:       2 days 21 hours 23 minutes 21.1 seconds.
 File lengths (MBytes):  RWF=  13865 Int=      0 D2E=      0 Chk=    867 Scr=      1
 Normal termination of Gaussian 16 at Thu Jun 17 06:19:32 2021.
