 Entering Gaussian System, Link 0=g16
 Input=mex.com
 Output=mex.out
 Initial command:
 /usr/local/apps/gaussian/g16-b01-avx2//g16/l1.exe "/tmp/r2652.865709.maple/Gau-35836.inp" -scrdir="/tmp/r2652.865709.maple/"
 Entering Link 1 = /usr/local/apps/gaussian/g16-b01-avx2//g16/l1.exe PID=     36366.
  
 Copyright (c) 1988-2017, Gaussian, Inc.  All Rights Reserved.
  
 This is part of the Gaussian(R) 16 program.  It is based on
 the Gaussian(R) 09 system (copyright 2009, Gaussian, Inc.),
 the Gaussian(R) 03 system (copyright 2003, Gaussian, Inc.),
 the Gaussian(R) 98 system (copyright 1998, Gaussian, Inc.),
 the Gaussian(R) 94 system (copyright 1995, Gaussian, Inc.),
 the Gaussian 92(TM) system (copyright 1992, Gaussian, Inc.),
 the Gaussian 90(TM) system (copyright 1990, Gaussian, Inc.),
 the Gaussian 88(TM) system (copyright 1988, Gaussian, Inc.),
 the Gaussian 86(TM) system (copyright 1986, Carnegie Mellon
 University), and the Gaussian 82(TM) system (copyright 1983,
 Carnegie Mellon University). Gaussian is a federally registered
 trademark of Gaussian, Inc.
  
 This software contains proprietary and confidential information,
 including trade secrets, belonging to Gaussian, Inc.
  
 This software is provided under written license and may be
 used, copied, transmitted, or stored only in accord with that
 written license.
  
 The following legend is applicable only to US Government
 contracts under FAR:
  
                    RESTRICTED RIGHTS LEGEND
  
 Use, reproduction and disclosure by the US Government is
 subject to restrictions as set forth in subparagraphs (a)
 and (c) of the Commercial Computer Software - Restricted
 Rights clause in FAR 52.227-19.
  
 Gaussian, Inc.
 340 Quinnipiac St., Bldg. 40, Wallingford CT 06492
  
  
 ---------------------------------------------------------------
 Warning -- This program may not be used in any manner that
 competes with the business of Gaussian, Inc. or will provide
 assistance to any competitor of Gaussian, Inc.  The licensee
 of this program is prohibited from giving any competitor of
 Gaussian, Inc. access to this program.  By using this program,
 the user acknowledges that Gaussian, Inc. is engaged in the
 business of creating and licensing software in the field of
 computational chemistry and represents and warrants to the
 licensee that it is not a competitor of Gaussian, Inc. and that
 it will not use this program in any manner prohibited above.
 ---------------------------------------------------------------
  

 Cite this work as:
 Gaussian 16, Revision B.01,
 M. J. Frisch, G. W. Trucks, H. B. Schlegel, G. E. Scuseria, 
 M. A. Robb, J. R. Cheeseman, G. Scalmani, V. Barone, 
 G. A. Petersson, H. Nakatsuji, X. Li, M. Caricato, A. V. Marenich, 
 J. Bloino, B. G. Janesko, R. Gomperts, B. Mennucci, H. P. Hratchian, 
 J. V. Ortiz, A. F. Izmaylov, J. L. Sonnenberg, D. Williams-Young, 
 F. Ding, F. Lipparini, F. Egidi, J. Goings, B. Peng, A. Petrone, 
 T. Henderson, D. Ranasinghe, V. G. Zakrzewski, J. Gao, N. Rega, 
 G. Zheng, W. Liang, M. Hada, M. Ehara, K. Toyota, R. Fukuda, 
 J. Hasegawa, M. Ishida, T. Nakajima, Y. Honda, O. Kitao, H. Nakai, 
 T. Vreven, K. Throssell, J. A. Montgomery, Jr., J. E. Peralta, 
 F. Ogliaro, M. J. Bearpark, J. J. Heyd, E. N. Brothers, K. N. Kudin, 
 V. N. Staroverov, T. A. Keith, R. Kobayashi, J. Normand, 
 K. Raghavachari, A. P. Rendell, J. C. Burant, S. S. Iyengar, 
 J. Tomasi, M. Cossi, J. M. Millam, M. Klene, C. Adamo, R. Cammi, 
 J. W. Ochterski, R. L. Martin, K. Morokuma, O. Farkas, 
 J. B. Foresman, and D. J. Fox, Gaussian, Inc., Wallingford CT, 2016.
 
 ******************************************
 Gaussian 16:  ES64L-G16RevB.01 20-Dec-2017
                18-Jun-2021 
 ******************************************
 %mem=8gb
 ----------------------------
 #N PBE1PBE/6-311+G(2d,p) OPT
 ----------------------------
 1/18=20,19=15,26=3,38=1/1,3;
 2/9=110,12=2,17=6,18=5,40=1/2;
 3/5=4,6=6,7=112,11=2,25=1,30=1,71=1,74=-13/1,2,3;
 4//1;
 5/5=2,38=5/2;
 6/7=2,8=2,9=2,10=2,28=1/1;
 7//1,2,3,16;
 1/18=20,19=15,26=3/3(2);
 2/9=110/2;
 99//99;
 2/9=110/2;
 3/5=4,6=6,7=112,11=2,25=1,30=1,71=1,74=-13/1,2,3;
 4/5=5,16=3,69=1/1;
 5/5=2,38=5/2;
 7//1,2,3,16;
 1/18=20,19=15,26=3/3(-5);
 2/9=110/2;
 6/7=2,8=2,9=2,10=2,19=2,28=1/1;
 99/9=1/99;
 ------------
 C41H28O4N2S4
 ------------
 Symbolic Z-matrix:
 Charge =  0 Multiplicity = 1
 C                     0.        0.        0. 
 C                     1.1855    0.9582    0.10501 
 C                     0.74195   2.26935   0.25512 
 C                    -0.68804   2.28628   0.2644 
 S                    -1.97378   3.43447   0.40219 
 C                    -3.17623   2.1473    0.24225 
 C                    -4.60081   2.45473   0.27475 
 C                    -5.10444   3.71323  -0.09795 
 C                    -6.46058   3.99165  -0.07338 
 C                    -7.39101   3.01698   0.33204 
 N                    -8.76539   3.29459   0.36484 
 C                    -9.23807   4.62642   0.57248 
 C                    -10.19156   5.18316  -0.2791 
 H                    -10.56258   4.60187  -1.11475 
 C                    -10.68303   6.47098  -0.06624 
 C                    -10.20437   7.23088   1.00369 
 C                    -9.24167   6.67876   1.85936 
 C                    -8.77411   5.3922    1.65284 
 H                    -8.04039   4.97051   2.32944 
 H                    -8.88815   7.276     2.69101 
 O                    -10.60567   8.49872   1.30095 
 C                    -11.5796   9.1134    0.46911 
 H                    -11.22267   9.21247  -0.56218 
 H                    -12.52305   8.55596   0.47523 
 H                    -11.7454   10.10434   0.88822 
 H                    -11.42615   6.86782  -0.74454 
 C                    -9.7279    2.25744   0.17208 
 C                    -9.64426   1.39173  -0.91867 
 C                    -10.58462   0.37933  -1.1083 
 C                    -11.64524   0.23708  -0.20987 
 C                    -11.74243   1.11314   0.87903 
 C                    -10.79311   2.10259   1.07116 
 H                    -10.87315   2.76998   1.92084 
 H                    -12.5684   0.98835   1.56861 
 O                    -12.62409  -0.70693  -0.30251 
 C                    -12.58309  -1.62068  -1.38927 
 H                    -12.66032  -1.10391  -2.35252 
 H                    -11.6684  -2.22408  -1.37316 
 H                    -13.4454  -2.27287  -1.26188 
 H                    -10.48576  -0.27531  -1.96363 
 H                    -8.83223   1.50437  -1.62722 
 C                    -6.89455   1.75458   0.71042 
 C                    -5.53749   1.48628   0.68141 
 H                    -5.1912    0.51612   1.0186 
 H                    -7.58324   0.99075   1.04764 
 H                    -6.81096   4.96709  -0.38465 
 H                    -4.42376   4.48158  -0.44802 
 C                    -2.56286   0.91239   0.10826 
 C                    -1.15709   0.99005   0.12185 
 H                    -3.12934   0.00087  -0.02803 
 S                     2.04028   3.3955    0.37164 
 C                     3.22482   2.08536   0.19909 
 C                     2.57884   0.85572   0.07272 
 H                     3.12721  -0.06871  -0.05798 
 C                     4.62969   2.33615   0.23181 
 S                     5.7435    1.03693   0.56323 
 C                     7.17987   2.0661    0.43639 
 C                     6.76235   3.37152   0.17349 
 C                     5.34624   3.52864   0.04198 
 C                     4.98093   4.85031  -0.35686 
 C                     6.06466   5.65411  -0.52954 
 S                     7.60539   4.85527  -0.19333 
 C                     5.99212   7.06889  -0.94069 
 O                     4.96283   7.65994  -1.16604 
 O                     7.21963   7.61585  -1.0348 
 C                     7.26469   9.00251  -1.41767 
 H                     6.81963   9.13808  -2.40441 
 H                     6.72442   9.61314  -0.69306 
 H                     8.31967   9.26444  -1.43091 
 H                     3.97724   5.20937  -0.52993 
 C                     8.43877   1.42001   0.54077 
 C                     9.6848    1.91453   0.84044 
 C                     9.89434   3.21769   1.36426 
 N                     10.05788   4.26742   1.82192 
 C                     10.8971   1.0367    0.83184 
 O                     10.82566  -0.0741    0.03981 
 H                     10.12384   0.02925  -0.61277 
 O                     11.87959   1.25452   1.48279 
 H                     8.39398   0.34304   0.39271 
 C                    -0.0201   -0.72697  -1.36158 
 H                    -0.0132   -0.01286  -2.18734 
 H                     0.85207  -1.37878  -1.46213 
 H                    -0.91635  -1.34677  -1.45079 
 C                    -0.00719  -1.01981   1.15891 
 H                     0.00985  -0.51398   2.12622 
 H                    -0.90377  -1.64387   1.11308 
 H                     0.8648   -1.67671   1.09825 
 

 GradGradGradGradGradGradGradGradGradGradGradGradGradGradGradGradGradGrad
 Berny optimization.
 Initialization pass.
                           ----------------------------
                           !    Initial Parameters    !
                           ! (Angstroms and Degrees)  !
 --------------------------                            --------------------------
 ! Name  Definition              Value          Derivative Info.                !
 --------------------------------------------------------------------------------
 ! R1    R(1,2)                  1.5279         estimate D2E/DX2                !
 ! R2    R(1,49)                 1.5277         estimate D2E/DX2                !
 ! R3    R(1,80)                 1.5436         estimate D2E/DX2                !
 ! R4    R(1,84)                 1.5437         estimate D2E/DX2                !
 ! R5    R(2,3)                  1.3923         estimate D2E/DX2                !
 ! R6    R(2,53)                 1.3975         estimate D2E/DX2                !
 ! R7    R(3,4)                  1.4301         estimate D2E/DX2                !
 ! R8    R(3,51)                 1.7226         estimate D2E/DX2                !
 ! R9    R(4,5)                  1.7293         estimate D2E/DX2                !
 ! R10   R(4,49)                 1.3858         estimate D2E/DX2                !
 ! R11   R(5,6)                  1.7687         estimate D2E/DX2                !
 ! R12   R(6,7)                  1.4577         estimate D2E/DX2                !
 ! R13   R(6,48)                 1.3853         estimate D2E/DX2                !
 ! R14   R(7,8)                  1.4058         estimate D2E/DX2                !
 ! R15   R(7,43)                 1.4074         estimate D2E/DX2                !
 ! R16   R(8,9)                  1.3846         estimate D2E/DX2                !
 ! R17   R(8,47)                 1.0845         estimate D2E/DX2                !
 ! R18   R(9,10)                 1.4071         estimate D2E/DX2                !
 ! R19   R(9,46)                 1.0822         estimate D2E/DX2                !
 ! R20   R(10,11)                1.4025         estimate D2E/DX2                !
 ! R21   R(10,42)                1.4083         estimate D2E/DX2                !
 ! R22   R(11,12)                1.4284         estimate D2E/DX2                !
 ! R23   R(11,27)                1.428          estimate D2E/DX2                !
 ! R24   R(12,13)                1.3944         estimate D2E/DX2                !
 ! R25   R(12,18)                1.4032         estimate D2E/DX2                !
 ! R26   R(13,14)                1.0834         estimate D2E/DX2                !
 ! R27   R(13,15)                1.3947         estimate D2E/DX2                !
 ! R28   R(15,16)                1.3969         estimate D2E/DX2                !
 ! R29   R(15,26)                1.0816         estimate D2E/DX2                !
 ! R30   R(16,17)                1.4014         estimate D2E/DX2                !
 ! R31   R(16,21)                1.3627         estimate D2E/DX2                !
 ! R32   R(17,18)                1.3844         estimate D2E/DX2                !
 ! R33   R(17,20)                1.0832         estimate D2E/DX2                !
 ! R34   R(18,19)                1.0835         estimate D2E/DX2                !
 ! R35   R(21,22)                1.4207         estimate D2E/DX2                !
 ! R36   R(22,23)                1.0958         estimate D2E/DX2                !
 ! R37   R(22,24)                1.0958         estimate D2E/DX2                !
 ! R38   R(22,25)                1.0886         estimate D2E/DX2                !
 ! R39   R(27,28)                1.3951         estimate D2E/DX2                !
 ! R40   R(27,32)                1.4025         estimate D2E/DX2                !
 ! R41   R(28,29)                1.3947         estimate D2E/DX2                !
 ! R42   R(28,41)                1.0836         estimate D2E/DX2                !
 ! R43   R(29,30)                1.3973         estimate D2E/DX2                !
 ! R44   R(29,40)                1.0816         estimate D2E/DX2                !
 ! R45   R(30,31)                1.4009         estimate D2E/DX2                !
 ! R46   R(30,35)                1.363          estimate D2E/DX2                !
 ! R47   R(31,32)                1.3846         estimate D2E/DX2                !
 ! R48   R(31,34)                1.0832         estimate D2E/DX2                !
 ! R49   R(32,33)                1.0834         estimate D2E/DX2                !
 ! R50   R(35,36)                1.4204         estimate D2E/DX2                !
 ! R51   R(36,37)                1.0958         estimate D2E/DX2                !
 ! R52   R(36,38)                1.0959         estimate D2E/DX2                !
 ! R53   R(36,39)                1.0886         estimate D2E/DX2                !
 ! R54   R(42,43)                1.3836         estimate D2E/DX2                !
 ! R55   R(42,45)                1.0823         estimate D2E/DX2                !
 ! R56   R(43,44)                1.0839         estimate D2E/DX2                !
 ! R57   R(48,49)                1.408          estimate D2E/DX2                !
 ! R58   R(48,50)                1.0818         estimate D2E/DX2                !
 ! R59   R(51,52)                1.7747         estimate D2E/DX2                !
 ! R60   R(52,53)                1.3947         estimate D2E/DX2                !
 ! R61   R(52,55)                1.4275         estimate D2E/DX2                !
 ! R62   R(53,54)                1.0828         estimate D2E/DX2                !
 ! R63   R(55,56)                1.7431         estimate D2E/DX2                !
 ! R64   R(55,59)                1.4041         estimate D2E/DX2                !
 ! R65   R(56,57)                1.7716         estimate D2E/DX2                !
 ! R66   R(57,58)                1.3955         estimate D2E/DX2                !
 ! R67   R(57,71)                1.4189         estimate D2E/DX2                !
 ! R68   R(58,59)                1.4309         estimate D2E/DX2                !
 ! R69   R(58,62)                1.7455         estimate D2E/DX2                !
 ! R70   R(59,60)                1.4281         estimate D2E/DX2                !
 ! R71   R(60,61)                1.3603         estimate D2E/DX2                !
 ! R72   R(60,70)                1.0799         estimate D2E/DX2                !
 ! R73   R(61,62)                1.7678         estimate D2E/DX2                !
 ! R74   R(61,63)                1.4751         estimate D2E/DX2                !
 ! R75   R(63,64)                1.2081         estimate D2E/DX2                !
 ! R76   R(63,65)                1.3471         estimate D2E/DX2                !
 ! R77   R(65,66)                1.4393         estimate D2E/DX2                !
 ! R78   R(66,67)                1.0909         estimate D2E/DX2                !
 ! R79   R(66,68)                1.0908         estimate D2E/DX2                !
 ! R80   R(66,69)                1.0871         estimate D2E/DX2                !
 ! R81   R(71,72)                1.3737         estimate D2E/DX2                !
 ! R82   R(71,79)                1.088          estimate D2E/DX2                !
 ! R83   R(72,73)                1.42           estimate D2E/DX2                !
 ! R84   R(72,75)                1.4968         estimate D2E/DX2                !
 ! R85   R(73,74)                1.1568         estimate D2E/DX2                !
 ! R86   R(75,76)                1.3661         estimate D2E/DX2                !
 ! R87   R(75,78)                1.1985         estimate D2E/DX2                !
 ! R88   R(76,77)                0.9639         estimate D2E/DX2                !
 ! R89   R(80,81)                1.0917         estimate D2E/DX2                !
 ! R90   R(80,82)                1.0934         estimate D2E/DX2                !
 ! R91   R(80,83)                1.0933         estimate D2E/DX2                !
 ! R92   R(84,85)                1.0917         estimate D2E/DX2                !
 ! R93   R(84,86)                1.0933         estimate D2E/DX2                !
 ! R94   R(84,87)                1.0934         estimate D2E/DX2                !
 ! A1    A(2,1,49)             100.1228         estimate D2E/DX2                !
 ! A2    A(2,1,80)             111.4732         estimate D2E/DX2                !
 ! A3    A(2,1,84)             111.4876         estimate D2E/DX2                !
 ! A4    A(49,1,80)            111.4506         estimate D2E/DX2                !
 ! A5    A(49,1,84)            111.3901         estimate D2E/DX2                !
 ! A6    A(80,1,84)            110.5486         estimate D2E/DX2                !
 ! A7    A(1,2,3)              110.537          estimate D2E/DX2                !
 ! A8    A(1,2,53)             136.553          estimate D2E/DX2                !
 ! A9    A(3,2,53)             112.9043         estimate D2E/DX2                !
 ! A10   A(2,3,4)              109.2934         estimate D2E/DX2                !
 ! A11   A(2,3,51)             112.5095         estimate D2E/DX2                !
 ! A12   A(4,3,51)             138.197          estimate D2E/DX2                !
 ! A13   A(3,4,5)              138.7479         estimate D2E/DX2                !
 ! A14   A(3,4,49)             109.0675         estimate D2E/DX2                !
 ! A15   A(5,4,49)             112.1845         estimate D2E/DX2                !
 ! A16   A(4,5,6)               90.8631         estimate D2E/DX2                !
 ! A17   A(5,6,7)              120.59           estimate D2E/DX2                !
 ! A18   A(5,6,48)             110.8831         estimate D2E/DX2                !
 ! A19   A(7,6,48)             128.5238         estimate D2E/DX2                !
 ! A20   A(6,7,8)              122.2067         estimate D2E/DX2                !
 ! A21   A(6,7,43)             120.7798         estimate D2E/DX2                !
 ! A22   A(8,7,43)             117.013          estimate D2E/DX2                !
 ! A23   A(7,8,9)              121.7467         estimate D2E/DX2                !
 ! A24   A(7,8,47)             119.6658         estimate D2E/DX2                !
 ! A25   A(9,8,47)             118.5531         estimate D2E/DX2                !
 ! A26   A(8,9,10)             120.8933         estimate D2E/DX2                !
 ! A27   A(8,9,46)             119.5535         estimate D2E/DX2                !
 ! A28   A(10,9,46)            119.5465         estimate D2E/DX2                !
 ! A29   A(9,10,11)            121.17           estimate D2E/DX2                !
 ! A30   A(9,10,42)            117.7243         estimate D2E/DX2                !
 ! A31   A(11,10,42)           121.1049         estimate D2E/DX2                !
 ! A32   A(10,11,12)           120.8131         estimate D2E/DX2                !
 ! A33   A(10,11,27)           120.9022         estimate D2E/DX2                !
 ! A34   A(12,11,27)           118.2784         estimate D2E/DX2                !
 ! A35   A(11,12,13)           120.65           estimate D2E/DX2                !
 ! A36   A(11,12,18)           120.7549         estimate D2E/DX2                !
 ! A37   A(13,12,18)           118.5821         estimate D2E/DX2                !
 ! A38   A(12,13,14)           119.4051         estimate D2E/DX2                !
 ! A39   A(12,13,15)           121.0922         estimate D2E/DX2                !
 ! A40   A(14,13,15)           119.5006         estimate D2E/DX2                !
 ! A41   A(13,15,16)           119.8966         estimate D2E/DX2                !
 ! A42   A(13,15,26)           119.0236         estimate D2E/DX2                !
 ! A43   A(16,15,26)           121.077          estimate D2E/DX2                !
 ! A44   A(15,16,17)           119.2586         estimate D2E/DX2                !
 ! A45   A(15,16,21)           124.9118         estimate D2E/DX2                !
 ! A46   A(17,16,21)           115.8292         estimate D2E/DX2                !
 ! A47   A(16,17,18)           120.4697         estimate D2E/DX2                !
 ! A48   A(16,17,20)           118.4098         estimate D2E/DX2                !
 ! A49   A(18,17,20)           121.1126         estimate D2E/DX2                !
 ! A50   A(12,18,17)           120.6892         estimate D2E/DX2                !
 ! A51   A(12,18,19)           119.4923         estimate D2E/DX2                !
 ! A52   A(17,18,19)           119.8183         estimate D2E/DX2                !
 ! A53   A(16,21,22)           118.4714         estimate D2E/DX2                !
 ! A54   A(21,22,23)           111.5232         estimate D2E/DX2                !
 ! A55   A(21,22,24)           111.5212         estimate D2E/DX2                !
 ! A56   A(21,22,25)           105.8325         estimate D2E/DX2                !
 ! A57   A(23,22,24)           109.3705         estimate D2E/DX2                !
 ! A58   A(23,22,25)           109.2467         estimate D2E/DX2                !
 ! A59   A(24,22,25)           109.2545         estimate D2E/DX2                !
 ! A60   A(11,27,28)           121.0523         estimate D2E/DX2                !
 ! A61   A(11,27,32)           120.3701         estimate D2E/DX2                !
 ! A62   A(28,27,32)           118.5706         estimate D2E/DX2                !
 ! A63   A(27,28,29)           121.0864         estimate D2E/DX2                !
 ! A64   A(27,28,41)           119.4515         estimate D2E/DX2                !
 ! A65   A(29,28,41)           119.4612         estimate D2E/DX2                !
 ! A66   A(28,29,30)           119.8862         estimate D2E/DX2                !
 ! A67   A(28,29,40)           119.0267         estimate D2E/DX2                !
 ! A68   A(30,29,40)           121.08           estimate D2E/DX2                !
 ! A69   A(29,30,31)           119.26           estimate D2E/DX2                !
 ! A70   A(29,30,35)           124.8847         estimate D2E/DX2                !
 ! A71   A(31,30,35)           115.8553         estimate D2E/DX2                !
 ! A72   A(30,31,32)           120.4749         estimate D2E/DX2                !
 ! A73   A(30,31,34)           118.4032         estimate D2E/DX2                !
 ! A74   A(32,31,34)           121.1178         estimate D2E/DX2                !
 ! A75   A(27,32,31)           120.7096         estimate D2E/DX2                !
 ! A76   A(27,32,33)           119.3965         estimate D2E/DX2                !
 ! A77   A(31,32,33)           119.8931         estimate D2E/DX2                !
 ! A78   A(30,35,36)           118.4763         estimate D2E/DX2                !
 ! A79   A(35,36,37)           111.5386         estimate D2E/DX2                !
 ! A80   A(35,36,38)           111.5325         estimate D2E/DX2                !
 ! A81   A(35,36,39)           105.8423         estimate D2E/DX2                !
 ! A82   A(37,36,38)           109.3526         estimate D2E/DX2                !
 ! A83   A(37,36,39)           109.2414         estimate D2E/DX2                !
 ! A84   A(38,36,39)           109.2413         estimate D2E/DX2                !
 ! A85   A(10,42,43)           120.9271         estimate D2E/DX2                !
 ! A86   A(10,42,45)           119.4733         estimate D2E/DX2                !
 ! A87   A(43,42,45)           119.5879         estimate D2E/DX2                !
 ! A88   A(7,43,42)            121.6952         estimate D2E/DX2                !
 ! A89   A(7,43,44)            119.5499         estimate D2E/DX2                !
 ! A90   A(42,43,44)           118.7113         estimate D2E/DX2                !
 ! A91   A(6,48,49)            113.0768         estimate D2E/DX2                !
 ! A92   A(6,48,50)            122.1017         estimate D2E/DX2                !
 ! A93   A(49,48,50)           124.785          estimate D2E/DX2                !
 ! A94   A(1,49,4)             110.9786         estimate D2E/DX2                !
 ! A95   A(1,49,48)            136.0295         estimate D2E/DX2                !
 ! A96   A(4,49,48)            112.986          estimate D2E/DX2                !
 ! A97   A(3,51,52)             90.7944         estimate D2E/DX2                !
 ! A98   A(51,52,53)           110.5202         estimate D2E/DX2                !
 ! A99   A(51,52,55)           121.6672         estimate D2E/DX2                !
 ! A100  A(53,52,55)           127.792          estimate D2E/DX2                !
 ! A101  A(2,53,52)            113.2682         estimate D2E/DX2                !
 ! A102  A(2,53,54)            124.7753         estimate D2E/DX2                !
 ! A103  A(52,53,54)           121.9436         estimate D2E/DX2                !
 ! A104  A(52,55,56)           120.1512         estimate D2E/DX2                !
 ! A105  A(52,55,59)           130.4185         estimate D2E/DX2                !
 ! A106  A(56,55,59)           109.4284         estimate D2E/DX2                !
 ! A107  A(55,56,57)            94.0984         estimate D2E/DX2                !
 ! A108  A(56,57,58)           108.3204         estimate D2E/DX2                !
 ! A109  A(56,57,71)           116.717          estimate D2E/DX2                !
 ! A110  A(58,57,71)           134.8508         estimate D2E/DX2                !
 ! A111  A(57,58,59)           114.5902         estimate D2E/DX2                !
 ! A112  A(57,58,62)           133.6488         estimate D2E/DX2                !
 ! A113  A(59,58,62)           111.4286         estimate D2E/DX2                !
 ! A114  A(55,59,58)           113.5399         estimate D2E/DX2                !
 ! A115  A(55,59,60)           133.8861         estimate D2E/DX2                !
 ! A116  A(58,59,60)           112.3631         estimate D2E/DX2                !
 ! A117  A(59,60,61)           112.2428         estimate D2E/DX2                !
 ! A118  A(59,60,70)           126.1729         estimate D2E/DX2                !
 ! A119  A(61,60,70)           121.5762         estimate D2E/DX2                !
 ! A120  A(60,61,62)           113.7784         estimate D2E/DX2                !
 ! A121  A(60,61,63)           124.2596         estimate D2E/DX2                !
 ! A122  A(62,61,63)           121.9573         estimate D2E/DX2                !
 ! A123  A(58,62,61)            90.1806         estimate D2E/DX2                !
 ! A124  A(61,63,64)           124.2717         estimate D2E/DX2                !
 ! A125  A(61,63,65)           111.3503         estimate D2E/DX2                !
 ! A126  A(64,63,65)           124.378          estimate D2E/DX2                !
 ! A127  A(63,65,66)           115.9947         estimate D2E/DX2                !
 ! A128  A(65,66,67)           110.3386         estimate D2E/DX2                !
 ! A129  A(65,66,68)           110.3113         estimate D2E/DX2                !
 ! A130  A(65,66,69)           105.4123         estimate D2E/DX2                !
 ! A131  A(67,66,68)           109.2217         estimate D2E/DX2                !
 ! A132  A(67,66,69)           110.7914         estimate D2E/DX2                !
 ! A133  A(68,66,69)           110.725          estimate D2E/DX2                !
 ! A134  A(57,71,72)           131.0668         estimate D2E/DX2                !
 ! A135  A(57,71,79)           113.841          estimate D2E/DX2                !
 ! A136  A(72,71,79)           115.048          estimate D2E/DX2                !
 ! A137  A(71,72,73)           123.0041         estimate D2E/DX2                !
 ! A138  A(71,72,75)           121.4866         estimate D2E/DX2                !
 ! A139  A(73,72,75)           114.8855         estimate D2E/DX2                !
 ! A140  A(72,75,76)           115.9663         estimate D2E/DX2                !
 ! A141  A(72,75,78)           123.6587         estimate D2E/DX2                !
 ! A142  A(76,75,78)           120.3662         estimate D2E/DX2                !
 ! A143  A(75,76,77)           110.0848         estimate D2E/DX2                !
 ! A144  A(1,80,81)            111.0409         estimate D2E/DX2                !
 ! A145  A(1,80,82)            110.5766         estimate D2E/DX2                !
 ! A146  A(1,80,83)            110.4642         estimate D2E/DX2                !
 ! A147  A(81,80,82)           108.3803         estimate D2E/DX2                !
 ! A148  A(81,80,83)           108.3166         estimate D2E/DX2                !
 ! A149  A(82,80,83)           107.9643         estimate D2E/DX2                !
 ! A150  A(1,84,85)            111.0391         estimate D2E/DX2                !
 ! A151  A(1,84,86)            110.4511         estimate D2E/DX2                !
 ! A152  A(1,84,87)            110.5802         estimate D2E/DX2                !
 ! A153  A(85,84,86)           108.3247         estimate D2E/DX2                !
 ! A154  A(85,84,87)           108.3654         estimate D2E/DX2                !
 ! A155  A(86,84,87)           107.9831         estimate D2E/DX2                !
 ! A156  L(72,73,74,3,-1)      179.7637         estimate D2E/DX2                !
 ! A157  L(72,73,74,3,-2)      178.2674         estimate D2E/DX2                !
 ! D1    D(49,1,2,3)            -0.225          estimate D2E/DX2                !
 ! D2    D(49,1,2,53)         -179.2572         estimate D2E/DX2                !
 ! D3    D(80,1,2,3)           117.7717         estimate D2E/DX2                !
 ! D4    D(80,1,2,53)          -61.2604         estimate D2E/DX2                !
 ! D5    D(84,1,2,3)          -118.158          estimate D2E/DX2                !
 ! D6    D(84,1,2,53)           62.8098         estimate D2E/DX2                !
 ! D7    D(2,1,49,4)             0.258          estimate D2E/DX2                !
 ! D8    D(2,1,49,48)          179.277          estimate D2E/DX2                !
 ! D9    D(80,1,49,4)         -117.7554         estimate D2E/DX2                !
 ! D10   D(80,1,49,48)          61.2636         estimate D2E/DX2                !
 ! D11   D(84,1,49,4)          118.2631         estimate D2E/DX2                !
 ! D12   D(84,1,49,48)         -62.7179         estimate D2E/DX2                !
 ! D13   D(2,1,80,81)          -55.2911         estimate D2E/DX2                !
 ! D14   D(2,1,80,82)           65.0592         estimate D2E/DX2                !
 ! D15   D(2,1,80,83)         -175.4867         estimate D2E/DX2                !
 ! D16   D(49,1,80,81)          55.6548         estimate D2E/DX2                !
 ! D17   D(49,1,80,82)         176.005          estimate D2E/DX2                !
 ! D18   D(49,1,80,83)         -64.5409         estimate D2E/DX2                !
 ! D19   D(84,1,80,81)        -179.8896         estimate D2E/DX2                !
 ! D20   D(84,1,80,82)         -59.5393         estimate D2E/DX2                !
 ! D21   D(84,1,80,83)          59.9148         estimate D2E/DX2                !
 ! D22   D(2,1,84,85)           55.2458         estimate D2E/DX2                !
 ! D23   D(2,1,84,86)          175.4416         estimate D2E/DX2                !
 ! D24   D(2,1,84,87)          -65.087          estimate D2E/DX2                !
 ! D25   D(49,1,84,85)         -55.6737         estimate D2E/DX2                !
 ! D26   D(49,1,84,86)          64.5222         estimate D2E/DX2                !
 ! D27   D(49,1,84,87)        -176.0064         estimate D2E/DX2                !
 ! D28   D(80,1,84,85)         179.8361         estimate D2E/DX2                !
 ! D29   D(80,1,84,86)         -59.9681         estimate D2E/DX2                !
 ! D30   D(80,1,84,87)          59.5033         estimate D2E/DX2                !
 ! D31   D(1,2,3,4)              0.1227         estimate D2E/DX2                !
 ! D32   D(1,2,3,51)          -179.7425         estimate D2E/DX2                !
 ! D33   D(53,2,3,4)           179.4002         estimate D2E/DX2                !
 ! D34   D(53,2,3,51)           -0.4651         estimate D2E/DX2                !
 ! D35   D(1,2,53,52)          179.0899         estimate D2E/DX2                !
 ! D36   D(1,2,53,54)            0.3799         estimate D2E/DX2                !
 ! D37   D(3,2,53,52)            0.0738         estimate D2E/DX2                !
 ! D38   D(3,2,53,54)         -178.6362         estimate D2E/DX2                !
 ! D39   D(2,3,4,5)            179.9145         estimate D2E/DX2                !
 ! D40   D(2,3,4,49)             0.0513         estimate D2E/DX2                !
 ! D41   D(51,3,4,5)            -0.2722         estimate D2E/DX2                !
 ! D42   D(51,3,4,49)          179.8646         estimate D2E/DX2                !
 ! D43   D(2,3,51,52)            0.5478         estimate D2E/DX2                !
 ! D44   D(4,3,51,52)         -179.2614         estimate D2E/DX2                !
 ! D45   D(3,4,5,6)            179.387          estimate D2E/DX2                !
 ! D46   D(49,4,5,6)            -0.7526         estimate D2E/DX2                !
 ! D47   D(3,4,49,1)            -0.2056         estimate D2E/DX2                !
 ! D48   D(3,4,49,48)         -179.4658         estimate D2E/DX2                !
 ! D49   D(5,4,49,1)           179.8918         estimate D2E/DX2                !
 ! D50   D(5,4,49,48)            0.6316         estimate D2E/DX2                !
 ! D51   D(4,5,6,7)           -179.9023         estimate D2E/DX2                !
 ! D52   D(4,5,6,48)             0.6943         estimate D2E/DX2                !
 ! D53   D(5,6,7,8)             25.9054         estimate D2E/DX2                !
 ! D54   D(5,6,7,43)          -154.3564         estimate D2E/DX2                !
 ! D55   D(48,6,7,8)          -154.8071         estimate D2E/DX2                !
 ! D56   D(48,6,7,43)           24.9311         estimate D2E/DX2                !
 ! D57   D(5,6,48,49)           -0.472          estimate D2E/DX2                !
 ! D58   D(5,6,48,50)         -178.3745         estimate D2E/DX2                !
 ! D59   D(7,6,48,49)         -179.8156         estimate D2E/DX2                !
 ! D60   D(7,6,48,50)            2.282          estimate D2E/DX2                !
 ! D61   D(6,7,8,9)            179.4884         estimate D2E/DX2                !
 ! D62   D(6,7,8,47)             1.6501         estimate D2E/DX2                !
 ! D63   D(43,7,8,9)            -0.2592         estimate D2E/DX2                !
 ! D64   D(43,7,8,47)         -178.0975         estimate D2E/DX2                !
 ! D65   D(6,7,43,42)         -179.5377         estimate D2E/DX2                !
 ! D66   D(6,7,43,44)            2.8971         estimate D2E/DX2                !
 ! D67   D(8,7,43,42)            0.2137         estimate D2E/DX2                !
 ! D68   D(8,7,43,44)         -177.3515         estimate D2E/DX2                !
 ! D69   D(7,8,9,10)             0.1453         estimate D2E/DX2                !
 ! D70   D(7,8,9,46)          -178.9074         estimate D2E/DX2                !
 ! D71   D(47,8,9,10)          178.0068         estimate D2E/DX2                !
 ! D72   D(47,8,9,46)           -1.0459         estimate D2E/DX2                !
 ! D73   D(8,9,10,11)          179.712          estimate D2E/DX2                !
 ! D74   D(8,9,10,42)            0.0238         estimate D2E/DX2                !
 ! D75   D(46,9,10,11)          -1.2352         estimate D2E/DX2                !
 ! D76   D(46,9,10,42)         179.0766         estimate D2E/DX2                !
 ! D77   D(9,10,11,12)         -27.7619         estimate D2E/DX2                !
 ! D78   D(9,10,11,27)         151.3091         estimate D2E/DX2                !
 ! D79   D(42,10,11,12)        151.9158         estimate D2E/DX2                !
 ! D80   D(42,10,11,27)        -29.0133         estimate D2E/DX2                !
 ! D81   D(9,10,42,43)          -0.0686         estimate D2E/DX2                !
 ! D82   D(9,10,42,45)         178.6775         estimate D2E/DX2                !
 ! D83   D(11,10,42,43)       -179.757          estimate D2E/DX2                !
 ! D84   D(11,10,42,45)         -1.0109         estimate D2E/DX2                !
 ! D85   D(10,11,12,13)        129.8765         estimate D2E/DX2                !
 ! D86   D(10,11,12,18)        -51.4525         estimate D2E/DX2                !
 ! D87   D(27,11,12,13)        -49.2183         estimate D2E/DX2                !
 ! D88   D(27,11,12,18)        129.4527         estimate D2E/DX2                !
 ! D89   D(10,11,27,28)        -50.781          estimate D2E/DX2                !
 ! D90   D(10,11,27,32)        130.1915         estimate D2E/DX2                !
 ! D91   D(12,11,27,28)        128.3129         estimate D2E/DX2                !
 ! D92   D(12,11,27,32)        -50.7145         estimate D2E/DX2                !
 ! D93   D(11,12,13,14)         -1.0106         estimate D2E/DX2                !
 ! D94   D(11,12,13,15)        178.4555         estimate D2E/DX2                !
 ! D95   D(18,12,13,14)       -179.71           estimate D2E/DX2                !
 ! D96   D(18,12,13,15)         -0.2439         estimate D2E/DX2                !
 ! D97   D(11,12,18,17)       -179.4458         estimate D2E/DX2                !
 ! D98   D(11,12,18,19)          0.7078         estimate D2E/DX2                !
 ! D99   D(13,12,18,17)         -0.7478         estimate D2E/DX2                !
 ! D100  D(13,12,18,19)        179.4058         estimate D2E/DX2                !
 ! D101  D(12,13,15,16)          0.9345         estimate D2E/DX2                !
 ! D102  D(12,13,15,26)       -179.6692         estimate D2E/DX2                !
 ! D103  D(14,13,15,16)       -179.5998         estimate D2E/DX2                !
 ! D104  D(14,13,15,26)         -0.2036         estimate D2E/DX2                !
 ! D105  D(13,15,16,17)         -0.634          estimate D2E/DX2                !
 ! D106  D(13,15,16,21)        179.5879         estimate D2E/DX2                !
 ! D107  D(26,15,16,17)        179.9823         estimate D2E/DX2                !
 ! D108  D(26,15,16,21)          0.2043         estimate D2E/DX2                !
 ! D109  D(15,16,17,18)         -0.347          estimate D2E/DX2                !
 ! D110  D(15,16,17,20)       -179.3335         estimate D2E/DX2                !
 ! D111  D(21,16,17,18)        179.4508         estimate D2E/DX2                !
 ! D112  D(21,16,17,20)          0.4643         estimate D2E/DX2                !
 ! D113  D(15,16,21,22)         -0.2565         estimate D2E/DX2                !
 ! D114  D(17,16,21,22)        179.9586         estimate D2E/DX2                !
 ! D115  D(16,17,18,12)          1.048          estimate D2E/DX2                !
 ! D116  D(16,17,18,19)       -179.1061         estimate D2E/DX2                !
 ! D117  D(20,17,18,12)       -179.9932         estimate D2E/DX2                !
 ! D118  D(20,17,18,19)         -0.1473         estimate D2E/DX2                !
 ! D119  D(16,21,22,23)        -61.3561         estimate D2E/DX2                !
 ! D120  D(16,21,22,24)         61.2442         estimate D2E/DX2                !
 ! D121  D(16,21,22,25)        179.9482         estimate D2E/DX2                !
 ! D122  D(11,27,28,29)       -179.9399         estimate D2E/DX2                !
 ! D123  D(11,27,28,41)          0.3977         estimate D2E/DX2                !
 ! D124  D(32,27,28,29)         -0.8953         estimate D2E/DX2                !
 ! D125  D(32,27,28,41)        179.4423         estimate D2E/DX2                !
 ! D126  D(11,27,32,31)        178.9476         estimate D2E/DX2                !
 ! D127  D(11,27,32,33)         -0.7189         estimate D2E/DX2                !
 ! D128  D(28,27,32,31)         -0.1037         estimate D2E/DX2                !
 ! D129  D(28,27,32,33)       -179.7702         estimate D2E/DX2                !
 ! D130  D(27,28,29,30)          1.1769         estimate D2E/DX2                !
 ! D131  D(27,28,29,40)       -179.7805         estimate D2E/DX2                !
 ! D132  D(41,28,29,30)       -179.1607         estimate D2E/DX2                !
 ! D133  D(41,28,29,40)         -0.1181         estimate D2E/DX2                !
 ! D134  D(28,29,30,31)         -0.4494         estimate D2E/DX2                !
 ! D135  D(28,29,30,35)        179.5023         estimate D2E/DX2                !
 ! D136  D(40,29,30,31)       -179.472          estimate D2E/DX2                !
 ! D137  D(40,29,30,35)          0.4797         estimate D2E/DX2                !
 ! D138  D(29,30,31,32)         -0.5373         estimate D2E/DX2                !
 ! D139  D(29,30,31,34)       -179.8078         estimate D2E/DX2                !
 ! D140  D(35,30,31,32)        179.5068         estimate D2E/DX2                !
 ! D141  D(35,30,31,34)          0.2362         estimate D2E/DX2                !
 ! D142  D(29,30,35,36)         -0.2385         estimate D2E/DX2                !
 ! D143  D(31,30,35,36)        179.7147         estimate D2E/DX2                !
 ! D144  D(30,31,32,27)          0.8185         estimate D2E/DX2                !
 ! D145  D(30,31,32,33)       -179.5166         estimate D2E/DX2                !
 ! D146  D(34,31,32,27)       -179.9309         estimate D2E/DX2                !
 ! D147  D(34,31,32,33)         -0.2661         estimate D2E/DX2                !
 ! D148  D(30,35,36,37)        -61.408          estimate D2E/DX2                !
 ! D149  D(30,35,36,38)         61.1883         estimate D2E/DX2                !
 ! D150  D(30,35,36,39)        179.8885         estimate D2E/DX2                !
 ! D151  D(10,42,43,7)          -0.0539         estimate D2E/DX2                !
 ! D152  D(10,42,43,44)        177.531          estimate D2E/DX2                !
 ! D153  D(45,42,43,7)        -178.7987         estimate D2E/DX2                !
 ! D154  D(45,42,43,44)         -1.2137         estimate D2E/DX2                !
 ! D155  D(6,48,49,1)         -179.0975         estimate D2E/DX2                !
 ! D156  D(6,48,49,4)           -0.0925         estimate D2E/DX2                !
 ! D157  D(50,48,49,1)          -1.261          estimate D2E/DX2                !
 ! D158  D(50,48,49,4)         177.744          estimate D2E/DX2                !
 ! D159  D(3,51,52,53)          -0.4985         estimate D2E/DX2                !
 ! D160  D(3,51,52,55)        -178.9655         estimate D2E/DX2                !
 ! D161  D(51,52,53,2)           0.3339         estimate D2E/DX2                !
 ! D162  D(51,52,53,54)        179.0852         estimate D2E/DX2                !
 ! D163  D(55,52,53,2)         178.6827         estimate D2E/DX2                !
 ! D164  D(55,52,53,54)         -2.5659         estimate D2E/DX2                !
 ! D165  D(51,52,55,56)        160.6977         estimate D2E/DX2                !
 ! D166  D(51,52,55,59)        -18.7487         estimate D2E/DX2                !
 ! D167  D(53,52,55,56)        -17.4853         estimate D2E/DX2                !
 ! D168  D(53,52,55,59)        163.0683         estimate D2E/DX2                !
 ! D169  D(52,55,56,57)        179.9138         estimate D2E/DX2                !
 ! D170  D(59,55,56,57)         -0.5332         estimate D2E/DX2                !
 ! D171  D(52,55,59,58)        179.1861         estimate D2E/DX2                !
 ! D172  D(52,55,59,60)         -6.6317         estimate D2E/DX2                !
 ! D173  D(56,55,59,58)         -0.3063         estimate D2E/DX2                !
 ! D174  D(56,55,59,60)        173.876          estimate D2E/DX2                !
 ! D175  D(55,56,57,58)          1.2288         estimate D2E/DX2                !
 ! D176  D(55,56,57,71)       -175.4991         estimate D2E/DX2                !
 ! D177  D(56,57,58,59)         -1.6289         estimate D2E/DX2                !
 ! D178  D(56,57,58,62)       -174.287          estimate D2E/DX2                !
 ! D179  D(71,57,58,59)        174.2471         estimate D2E/DX2                !
 ! D180  D(71,57,58,62)          1.589          estimate D2E/DX2                !
 ! D181  D(56,57,71,72)       -160.1985         estimate D2E/DX2                !
 ! D182  D(56,57,71,79)         17.2212         estimate D2E/DX2                !
 ! D183  D(58,57,71,72)         24.1848         estimate D2E/DX2                !
 ! D184  D(58,57,71,79)       -158.3954         estimate D2E/DX2                !
 ! D185  D(57,58,59,55)          1.31           estimate D2E/DX2                !
 ! D186  D(57,58,59,60)       -174.1591         estimate D2E/DX2                !
 ! D187  D(62,58,59,55)        175.6092         estimate D2E/DX2                !
 ! D188  D(62,58,59,60)          0.1401         estimate D2E/DX2                !
 ! D189  D(57,58,62,61)        172.3334         estimate D2E/DX2                !
 ! D190  D(59,58,62,61)         -0.4957         estimate D2E/DX2                !
 ! D191  D(55,59,60,61)       -173.7901         estimate D2E/DX2                !
 ! D192  D(55,59,60,70)          5.1796         estimate D2E/DX2                !
 ! D193  D(58,59,60,61)          0.4428         estimate D2E/DX2                !
 ! D194  D(58,59,60,70)        179.4124         estimate D2E/DX2                !
 ! D195  D(59,60,61,62)         -0.8335         estimate D2E/DX2                !
 ! D196  D(59,60,61,63)        179.9429         estimate D2E/DX2                !
 ! D197  D(70,60,61,62)       -179.8573         estimate D2E/DX2                !
 ! D198  D(70,60,61,63)          0.9191         estimate D2E/DX2                !
 ! D199  D(60,61,62,58)          0.7754         estimate D2E/DX2                !
 ! D200  D(63,61,62,58)       -179.9809         estimate D2E/DX2                !
 ! D201  D(60,61,63,64)          0.0278         estimate D2E/DX2                !
 ! D202  D(60,61,63,65)       -179.8621         estimate D2E/DX2                !
 ! D203  D(62,61,63,64)       -179.1348         estimate D2E/DX2                !
 ! D204  D(62,61,63,65)          0.9753         estimate D2E/DX2                !
 ! D205  D(61,63,65,66)       -179.4003         estimate D2E/DX2                !
 ! D206  D(64,63,65,66)          0.71           estimate D2E/DX2                !
 ! D207  D(63,65,66,67)        -60.8569         estimate D2E/DX2                !
 ! D208  D(63,65,66,68)         59.9132         estimate D2E/DX2                !
 ! D209  D(63,65,66,69)        179.4814         estimate D2E/DX2                !
 ! D210  D(57,71,72,73)         12.3503         estimate D2E/DX2                !
 ! D211  D(57,71,72,75)       -177.1707         estimate D2E/DX2                !
 ! D212  D(79,71,72,73)       -165.0446         estimate D2E/DX2                !
 ! D213  D(79,71,72,75)          5.4344         estimate D2E/DX2                !
 ! D214  D(71,72,75,76)         24.9152         estimate D2E/DX2                !
 ! D215  D(71,72,75,78)       -154.0085         estimate D2E/DX2                !
 ! D216  D(73,72,75,76)       -163.8807         estimate D2E/DX2                !
 ! D217  D(73,72,75,78)         17.1956         estimate D2E/DX2                !
 ! D218  D(72,75,76,77)         18.8528         estimate D2E/DX2                !
 ! D219  D(78,75,76,77)       -162.1855         estimate D2E/DX2                !
 --------------------------------------------------------------------------------
 Trust Radius=3.00D-01 FncErr=1.00D-07 GrdErr=1.00D-06 EigMax=2.50D+02 EigMin=1.00D-04
 Number of steps in this run=    480 maximum allowed number of steps=    522.
 GradGradGradGradGradGradGradGradGradGradGradGradGradGradGradGradGradGrad

 Stoichiometry    C43H32N2O6S4
 Framework group  C1[X(C43H32N2O6S4)]
 Deg. of freedom   255
 Full point group                 C1      NOp   1
 Largest Abelian subgroup         C1      NOp   1
 Largest concise Abelian subgroup C1      NOp   1
                         Standard orientation:                         
 ---------------------------------------------------------------------
 Center     Atomic      Atomic             Coordinates (Angstroms)
 Number     Number       Type             X           Y           Z
 ---------------------------------------------------------------------
      1          6           0       -0.937367   -3.073447    0.186672
      2          6           0       -2.122867   -2.115248    0.081661
      3          6           0       -1.679316   -0.804099   -0.068452
      4          6           0       -0.249325   -0.787165   -0.077728
      5         16           0        1.036410    0.361025   -0.215518
      6          6           0        2.238860   -0.926149   -0.055578
      7          6           0        3.663445   -0.618716   -0.088081
      8          6           0        4.167072    0.639785    0.284618
      9          6           0        5.523215    0.918205    0.260048
     10          6           0        6.453643   -0.056471   -0.145370
     11          7           0        7.828021    0.221147   -0.178165
     12          6           0        8.300703    1.552970   -0.385806
     13          6           0        9.254197    2.109715    0.465769
     14          1           0        9.625209    1.528423    1.301420
     15          6           0        9.745666    3.397532    0.252908
     16          6           0        9.267005    4.157431   -0.817016
     17          6           0        8.304305    3.605310   -1.672687
     18          6           0        7.836741    2.318757   -1.466163
     19          1           0        7.103023    1.897060   -2.142771
     20          1           0        7.950783    4.202556   -2.504337
     21          8           0        9.668305    5.425275   -1.114274
     22          6           0       10.642233    6.039950   -0.282435
     23          1           0       10.285306    6.139026    0.748855
     24          1           0       11.585682    5.482513   -0.288556
     25          1           0       10.808033    7.030888   -0.701547
     26          1           0       10.488787    3.794368    0.931210
     27          6           0        8.790537   -0.816003    0.014590
     28          6           0        8.706892   -1.681719    1.105345
     29          6           0        9.647255   -2.694117    1.294967
     30          6           0       10.707870   -2.836370    0.396541
     31          6           0       10.805065   -1.960304   -0.692355
     32          6           0        9.855745   -0.970857   -0.884487
     33          1           0        9.935782   -0.303465   -1.734163
     34          1           0       11.631034   -2.085101   -1.381938
     35          8           0       11.686719   -3.780380    0.489179
     36          6           0       11.645727   -4.694126    1.575939
     37          1           0       11.722954   -4.177359    2.539191
     38          1           0       10.731032   -5.297522    1.559834
     39          1           0       12.508032   -5.346312    1.448547
     40          1           0        9.548391   -3.348753    2.150306
     41          1           0        7.894861   -1.569078    1.813892
     42          6           0        5.957184   -1.318867   -0.523743
     43          6           0        4.600126   -1.587169   -0.494737
     44          1           0        4.253834   -2.557328   -0.831925
     45          1           0        6.645870   -2.082701   -0.860973
     46          1           0        5.873589    1.893646    0.571326
     47          1           0        3.486389    1.408137    0.634689
     48          6           0        1.625489   -2.161053    0.078410
     49          6           0        0.219718   -2.083396    0.064821
     50          1           0        2.191968   -3.072577    0.214700
     51         16           0       -2.977646    0.322058   -0.184968
     52          6           0       -4.162184   -0.988087   -0.012416
     53          6           0       -3.516210   -2.217730    0.113955
     54          1           0       -4.064580   -3.142153    0.244654
     55          6           0       -5.567054   -0.737299   -0.045138
     56         16           0       -6.680862   -2.036515   -0.376555
     57          6           0       -8.117241   -1.007346   -0.249715
     58          6           0       -7.699721    0.298072    0.013178
     59          6           0       -6.283611    0.455188    0.144695
     60          6           0       -5.918293    1.776862    0.543528
     61          6           0       -7.002029    2.580666    0.716207
     62         16           0       -8.542754    1.781825    0.380001
     63          6           0       -6.929485    3.995445    1.127359
     64          8           0       -5.900200    4.586493    1.352715
     65          8           0       -8.156994    4.542399    1.221469
     66          6           0       -8.202058    5.929065    1.604344
     67          1           0       -7.756993    6.064628    2.591080
     68          1           0       -7.661788    6.539691    0.879736
     69          1           0       -9.257040    6.190991    1.617581
     70          1           0       -4.914608    2.135918    0.716605
     71          6           0       -9.376140   -1.653440   -0.354095
     72          6           0      -10.622163   -1.158916   -0.653764
     73          6           0      -10.831709    0.144243   -1.177590
     74          7           0      -10.995247    1.193976   -1.635252
     75          6           0      -11.834467   -2.036742   -0.645164
     76          8           0      -11.763023   -3.147544    0.146859
     77          1           0      -11.061204   -3.044195    0.799445
     78          8           0      -12.816952   -1.818928   -1.296115
     79          1           0       -9.331350   -2.730405   -0.206037
     80          6           0       -0.917271   -3.800420    1.548251
     81          1           0       -0.924169   -3.086302    2.374015
     82          1           0       -1.789433   -4.452223    1.648799
     83          1           0       -0.021019   -4.420217    1.637464
     84          6           0       -0.930182   -4.093261   -0.972236
     85          1           0       -0.947217   -3.587426   -1.939546
     86          1           0       -0.033600   -4.717316   -0.926403
     87          1           0       -1.802170   -4.750158   -0.911574
 ---------------------------------------------------------------------
 Rotational constants (GHZ):           0.0816788           0.0106340           0.0095919
 Standard basis: 6-311+G(2d,p) (5D, 7F)
 There are  1819 symmetry adapted cartesian basis functions of A   symmetry.
 There are  1709 symmetry adapted basis functions of A   symmetry.
  1709 basis functions,  2622 primitive gaussians,  1819 cartesian basis functions
   208 alpha electrons      208 beta electrons
       nuclear repulsion energy      7134.6351005501 Hartrees.
 NAtoms=   87 NActive=   87 NUniq=   87 SFac= 1.00D+00 NAtFMM=   60 NAOKFM=T Big=T
 Integral buffers will be    131072 words long.
 Raffenetti 2 integral format.
 Two-electron integral symmetry is turned on.
 One-electron integrals computed using PRISM.
 NBasis=  1709 RedAO= T EigKep=  1.02D-06  NBF=  1709
 NBsUse=  1688 1.00D-06 EigRej=  9.44D-07 NBFU=  1688
 ExpMin= 4.05D-02 ExpMax= 9.34D+04 ExpMxC= 3.17D+03 IAcc=3 IRadAn=         5 AccDes= 0.00D+00
 Harris functional with IExCor= 1009 and IRadAn=       5 diagonalized for initial guess.
 HarFok:  IExCor= 1009 AccDes= 0.00D+00 IRadAn=         5 IDoV= 1 UseB2=F ITyADJ=14
 ICtDFT=  3500011 ScaDFX=  1.000000  1.000000  1.000000  1.000000
 FoFCou: FMM=F IPFlag=           0 FMFlag=      100000 FMFlg1=        2001
         NFxFlg=           0 DoJE=T BraDBF=F KetDBF=T FulRan=T
         wScrn=  0.000000 ICntrl=       500 IOpCl=  0 I1Cent=   200000004 NGrid=           0
         NMat0=    1 NMatS0=      1 NMatT0=    0 NMatD0=    1 NMtDS0=    0 NMtDT0=    0
 Petite list used in FoFCou.
 Requested convergence on RMS density matrix=1.00D-08 within 128 cycles.
 Requested convergence on MAX density matrix=1.00D-06.
 Requested convergence on             energy=1.00D-06.
 No special actions if energy rises.
 SCF Done:  E(RPBE1PBE) =  -3808.98071370     A.U. after   17 cycles
            NFock= 17  Conv=0.56D-08     -V/T= 2.0030

 **********************************************************************

            Population analysis using the SCF Density.

 **********************************************************************

 Orbital symmetries:
       Occupied  (A) (A) (A) (A) (A) (A) (A) (A) (A) (A) (A) (A)
                 (A) (A) (A) (A) (A) (A) (A) (A) (A) (A) (A) (A)
                 (A) (A) (A) (A) (A) (A) (A) (A) (A) (A) (A) (A)
                 (A) (A) (A) (A) (A) (A) (A) (A) (A) (A) (A) (A)
                 (A) (A) (A) (A) (A) (A) (A) (A) (A) (A) (A) (A)
                 (A) (A) (A) (A) (A) (A) (A) (A) (A) (A) (A) (A)
                 (A) (A) (A) (A) (A) (A) (A) (A) (A) (A) (A) (A)
                 (A) (A) (A) (A) (A) (A) (A) (A) (A) (A) (A) (A)
                 (A) (A) (A) (A) (A) (A) (A) (A) (A) (A) (A) (A)
                 (A) (A) (A) (A) (A) (A) (A) (A) (A) (A) (A) (A)
                 (A) (A) (A) (A) (A) (A) (A) (A) (A) (A) (A) (A)
                 (A) (A) (A) (A) (A) (A) (A) (A) (A) (A) (A) (A)
                 (A) (A) (A) (A) (A) (A) (A) (A) (A) (A) (A) (A)
                 (A) (A) (A) (A) (A) (A) (A) (A) (A) (A) (A) (A)
                 (A) (A) (A) (A) (A) (A) (A) (A) (A) (A) (A) (A)
                 (A) (A) (A) (A) (A) (A) (A) (A) (A) (A) (A) (A)
                 (A) (A) (A) (A) (A) (A) (A) (A) (A) (A) (A) (A)
                 (A) (A) (A) (A)
       Virtual   (A) (A) (A) (A) (A) (A) (A) (A) (A) (A) (A) (A)
                 (A) (A) (A) (A) (A) (A) (A) (A) (A) (A) (A) (A)
                 (A) (A) (A) (A) (A) (A) (A) (A) (A) (A) (A) (A)
                 (A) (A) (A) (A) (A) (A) (A) (A) (A) (A) (A) (A)
                 (A) (A) (A) (A) (A) (A) (A) (A) (A) (A) (A) (A)
                 (A) (A) (A) (A) (A) (A) (A) (A) (A) (A) (A) (A)
                 (A) (A) (A) (A) (A) (A) (A) (A) (A) (A) (A) (A)
                 (A) (A) (A) (A) (A) (A) (A) (A) (A) (A) (A) (A)
                 (A) (A) (A) (A) (A) (A) (A) (A) (A) (A) (A) (A)
                 (A) (A) (A) (A) (A) (A) (A) (A) (A) (A) (A) (A)
                 (A) (A) (A) (A) (A) (A) (A) (A) (A) (A) (A) (A)
                 (A) (A) (A) (A) (A) (A) (A) (A) (A) (A) (A) (A)
                 (A) (A) (A) (A) (A) (A) (A) (A) (A) (A) (A) (A)
                 (A) (A) (A) (A) (A) (A) (A) (A) (A) (A) (A) (A)
                 (A) (A) (A) (A) (A) (A) (A) (A) (A) (A) (A) (A)
                 (A) (A) (A) (A) (A) (A) (A) (A) (A) (A) (A) (A)
                 (A) (A) (A) (A) (A) (A) (A) (A) (A) (A) (A) (A)
                 (A) (A) (A) (A) (A) (A) (A) (A) (A) (A) (A) (A)
                 (A) (A) (A) (A) (A) (A) (A) (A) (A) (A) (A) (A)
                 (A) (A) (A) (A) (A) (A) (A) (A) (A) (A) (A) (A)
                 (A) (A) (A) (A) (A) (A) (A) (A) (A) (A) (A) (A)
                 (A) (A) (A) (A) (A) (A) (A) (A) (A) (A) (A) (A)
                 (A) (A) (A) (A) (A) (A) (A) (A) (A) (A) (A) (A)
                 (A) (A) (A) (A) (A) (A) (A) (A) (A) (A) (A) (A)
                 (A) (A) (A) (A) (A) (A) (A) (A) (A) (A) (A) (A)
                 (A) (A) (A) (A) (A) (A) (A) (A) (A) (A) (A) (A)
                 (A) (A) (A) (A) (A) (A) (A) (A) (A) (A) (A) (A)
                 (A) (A) (A) (A) (A) (A) (A) (A) (A) (A) (A) (A)
                 (A) (A) (A) (A) (A) (A) (A) (A) (A) (A) (A) (A)
                 (A) (A) (A) (A) (A) (A) (A) (A) (A) (A) (A) (A)
                 (A) (A) (A) (A) (A) (A) (A) (A) (A) (A) (A) (A)
                 (A) (A) (A) (A) (A) (A) (A) (A) (A) (A) (A) (A)
                 (A) (A) (A) (A) (A) (A) (A) (A) (A) (A) (A) (A)
                 (A) (A) (A) (A) (A) (A) (A) (A) (A) (A) (A) (A)
                 (A) (A) (A) (A) (A) (A) (A) (A) (A) (A) (A) (A)
                 (A) (A) (A) (A) (A) (A) (A) (A) (A) (A) (A) (A)
                 (A) (A) (A) (A) (A) (A) (A) (A) (A) (A) (A) (A)
                 (A) (A) (A) (A) (A) (A) (A) (A) (A) (A) (A) (A)
                 (A) (A) (A) (A) (A) (A) (A) (A) (A) (A) (A) (A)
                 (A) (A) (A) (A) (A) (A) (A) (A) (A) (A) (A) (A)
                 (A) (A) (A) (A) (A) (A) (A) (A) (A) (A) (A) (A)
                 (A) (A) (A) (A) (A) (A) (A) (A) (A) (A) (A) (A)
                 (A) (A) (A) (A) (A) (A) (A) (A) (A) (A) (A) (A)
                 (A) (A) (A) (A) (A) (A) (A) (A) (A) (A) (A) (A)
                 (A) (A) (A) (A) (A) (A) (A) (A) (A) (A) (A) (A)
                 (A) (A) (A) (A) (A) (A) (A) (A) (A) (A) (A) (A)
                 (A) (A) (A) (A) (A) (A) (A) (A) (A) (A) (A) (A)
                 (A) (A) (A) (A) (A) (A) (A) (A) (A) (A) (A) (A)
                 (A) (A) (A) (A) (A) (A) (A) (A) (A) (A) (A) (A)
                 (A) (A) (A) (A) (A) (A) (A) (A) (A) (A) (A) (A)
                 (A) (A) (A) (A) (A) (A) (A) (A) (A) (A) (A) (A)
                 (A) (A) (A) (A) (A) (A) (A) (A) (A) (A) (A) (A)
                 (A) (A) (A) (A) (A) (A) (A) (A) (A) (A) (A) (A)
                 (A) (A) (A) (A) (A) (A) (A) (A) (A) (A) (A) (A)
                 (A) (A) (A) (A) (A) (A) (A) (A) (A) (A) (A) (A)
                 (A) (A) (A) (A) (A) (A) (A) (A) (A) (A) (A) (A)
                 (A) (A) (A) (A) (A) (A) (A) (A) (A) (A) (A) (A)
                 (A) (A) (A) (A) (A) (A) (A) (A) (A) (A) (A) (A)
                 (A) (A) (A) (A) (A) (A) (A) (A) (A) (A) (A) (A)
                 (A) (A) (A) (A) (A) (A) (A) (A) (A) (A) (A) (A)
                 (A) (A) (A) (A) (A) (A) (A) (A) (A) (A) (A) (A)
                 (A) (A) (A) (A) (A) (A) (A) (A) (A) (A) (A) (A)
                 (A) (A) (A) (A) (A) (A) (A) (A) (A) (A) (A) (A)
                 (A) (A) (A) (A) (A) (A) (A) (A) (A) (A) (A) (A)
                 (A) (A) (A) (A) (A) (A) (A) (A) (A) (A) (A) (A)
                 (A) (A) (A) (A) (A) (A) (A) (A) (A) (A) (A) (A)
                 (A) (A) (A) (A) (A) (A) (A) (A) (A) (A) (A) (A)
                 (A) (A) (A) (A) (A) (A) (A) (A) (A) (A) (A) (A)
                 (A) (A) (A) (A) (A) (A) (A) (A) (A) (A) (A) (A)
                 (A) (A) (A) (A) (A) (A) (A) (A) (A) (A) (A) (A)
                 (A) (A) (A) (A) (A) (A) (A) (A) (A) (A) (A) (A)
                 (A) (A) (A) (A) (A) (A) (A) (A) (A) (A) (A) (A)
                 (A) (A) (A) (A) (A) (A) (A) (A) (A) (A) (A) (A)
                 (A) (A) (A) (A) (A) (A) (A) (A) (A) (A) (A) (A)
                 (A) (A) (A) (A) (A) (A) (A) (A) (A) (A) (A) (A)
                 (A) (A) (A) (A) (A) (A) (A) (A) (A) (A) (A) (A)
                 (A) (A) (A) (A) (A) (A) (A) (A) (A) (A) (A) (A)
                 (A) (A) (A) (A) (A) (A) (A) (A) (A) (A) (A) (A)
                 (A) (A) (A) (A) (A) (A) (A) (A) (A) (A) (A) (A)
                 (A) (A) (A) (A) (A) (A) (A) (A) (A) (A) (A) (A)
                 (A) (A) (A) (A) (A) (A) (A) (A) (A) (A) (A) (A)
                 (A) (A) (A) (A) (A) (A) (A) (A) (A) (A) (A) (A)
                 (A) (A) (A) (A) (A) (A) (A) (A) (A) (A) (A) (A)
                 (A) (A) (A) (A) (A) (A) (A) (A) (A) (A) (A) (A)
                 (A) (A) (A) (A) (A) (A) (A) (A) (A) (A) (A) (A)
                 (A) (A) (A) (A) (A) (A) (A) (A) (A) (A) (A) (A)
                 (A) (A) (A) (A) (A) (A) (A) (A) (A) (A) (A) (A)
                 (A) (A) (A) (A) (A) (A) (A) (A) (A) (A) (A) (A)
                 (A) (A) (A) (A) (A) (A) (A) (A) (A) (A) (A) (A)
                 (A) (A) (A) (A) (A) (A) (A) (A) (A) (A) (A) (A)
                 (A) (A) (A) (A) (A) (A) (A) (A) (A) (A) (A) (A)
                 (A) (A) (A) (A) (A) (A) (A) (A) (A) (A) (A) (A)
                 (A) (A) (A) (A) (A) (A) (A) (A) (A) (A) (A) (A)
                 (A) (A) (A) (A) (A) (A) (A) (A) (A) (A) (A) (A)
                 (A) (A) (A) (A) (A) (A) (A) (A) (A) (A) (A) (A)
                 (A) (A) (A) (A) (A) (A) (A) (A) (A) (A) (A) (A)
                 (A) (A) (A) (A) (A) (A) (A) (A) (A) (A) (A) (A)
                 (A) (A) (A) (A) (A) (A) (A) (A) (A) (A) (A) (A)
                 (A) (A) (A) (A) (A) (A) (A) (A) (A) (A) (A) (A)
                 (A) (A) (A) (A) (A) (A) (A) (A) (A) (A) (A) (A)
                 (A) (A) (A) (A) (A) (A) (A) (A) (A) (A) (A) (A)
                 (A) (A) (A) (A) (A) (A) (A) (A) (A) (A) (A) (A)
                 (A) (A) (A) (A) (A) (A) (A) (A) (A) (A) (A) (A)
                 (A) (A) (A) (A) (A) (A) (A) (A) (A) (A) (A) (A)
                 (A) (A) (A) (A) (A) (A) (A) (A) (A) (A) (A) (A)
                 (A) (A) (A) (A) (A) (A) (A) (A) (A) (A) (A) (A)
                 (A) (A) (A) (A) (A) (A) (A) (A) (A) (A) (A) (A)
                 (A) (A) (A) (A) (A) (A) (A) (A) (A) (A) (A) (A)
                 (A) (A) (A) (A) (A) (A) (A) (A) (A) (A) (A) (A)
                 (A) (A) (A) (A) (A) (A) (A) (A) (A) (A) (A) (A)
                 (A) (A) (A) (A) (A) (A) (A) (A) (A) (A) (A) (A)
                 (A) (A) (A) (A) (A) (A) (A) (A) (A) (A) (A) (A)
                 (A) (A) (A) (A) (A) (A) (A) (A) (A) (A) (A) (A)
                 (A) (A) (A) (A) (A) (A) (A) (A) (A) (A) (A) (A)
                 (A) (A) (A) (A) (A) (A) (A) (A) (A) (A) (A) (A)
                 (A) (A) (A) (A) (A) (A) (A) (A) (A) (A) (A) (A)
                 (A) (A) (A) (A) (A) (A) (A) (A) (A) (A) (A) (A)
                 (A) (A) (A) (A) (A) (A) (A) (A) (A) (A) (A) (A)
                 (A) (A) (A) (A) (A) (A) (A) (A) (A) (A) (A) (A)
                 (A) (A) (A) (A) (A) (A) (A) (A) (A) (A) (A) (A)
                 (A) (A) (A) (A) (A) (A) (A) (A) (A) (A) (A) (A)
                 (A) (A) (A) (A) (A) (A) (A) (A) (A) (A) (A) (A)
                 (A) (A) (A) (A) (A) (A) (A) (A) (A) (A) (A) (A)
                 (A) (A) (A) (A)
 The electronic state is 1-A.
 Alpha  occ. eigenvalues --  -89.08026 -89.07812 -89.06802 -89.06784 -19.26330
 Alpha  occ. eigenvalues --  -19.25447 -19.25057 -19.24915 -19.20037 -19.19120
 Alpha  occ. eigenvalues --  -14.42775 -14.37527 -10.36651 -10.36249 -10.31164
 Alpha  occ. eigenvalues --  -10.29869 -10.29748 -10.29633 -10.29565 -10.29458
 Alpha  occ. eigenvalues --  -10.29140 -10.28912 -10.28540 -10.28489 -10.28461
 Alpha  occ. eigenvalues --  -10.28369 -10.28331 -10.28233 -10.27951 -10.27916
 Alpha  occ. eigenvalues --  -10.27912 -10.27466 -10.27377 -10.27010 -10.26208
 Alpha  occ. eigenvalues --  -10.25975 -10.25716 -10.25559 -10.25343 -10.25229
 Alpha  occ. eigenvalues --  -10.24648 -10.24273 -10.24214 -10.24172 -10.24028
 Alpha  occ. eigenvalues --  -10.24025 -10.24016 -10.23983 -10.23858 -10.23599
 Alpha  occ. eigenvalues --  -10.23585 -10.23535 -10.23501 -10.23450 -10.23422
 Alpha  occ. eigenvalues --   -8.06262  -8.06017  -8.04998  -8.04965  -5.99961
 Alpha  occ. eigenvalues --   -5.99706  -5.99586  -5.99355  -5.99224  -5.98982
 Alpha  occ. eigenvalues --   -5.98687  -5.98677  -5.98334  -5.98302  -5.97967
 Alpha  occ. eigenvalues --   -5.97890  -1.14890  -1.13743  -1.11085  -1.10947
 Alpha  occ. eigenvalues --   -1.05990  -1.05666  -1.00722  -0.96756  -0.95924
 Alpha  occ. eigenvalues --   -0.93288  -0.92453  -0.90241  -0.89773  -0.89737
 Alpha  occ. eigenvalues --   -0.88273  -0.87253  -0.86161  -0.82748  -0.81414
 Alpha  occ. eigenvalues --   -0.80289  -0.79929  -0.79490  -0.78960  -0.78860
 Alpha  occ. eigenvalues --   -0.78524  -0.77933  -0.77206  -0.76858  -0.76175
 Alpha  occ. eigenvalues --   -0.75052  -0.73609  -0.73382  -0.73030  -0.71727
 Alpha  occ. eigenvalues --   -0.69224  -0.67097  -0.66100  -0.65982  -0.65310
 Alpha  occ. eigenvalues --   -0.65024  -0.64691  -0.64407  -0.63043  -0.62741
 Alpha  occ. eigenvalues --   -0.60869  -0.60170  -0.58898  -0.58827  -0.58047
 Alpha  occ. eigenvalues --   -0.57857  -0.57271  -0.57177  -0.56968  -0.55990
 Alpha  occ. eigenvalues --   -0.55435  -0.54495  -0.53476  -0.52246  -0.52107
 Alpha  occ. eigenvalues --   -0.51552  -0.51042  -0.50931  -0.50806  -0.49855
 Alpha  occ. eigenvalues --   -0.49776  -0.49623  -0.48997  -0.48885  -0.48009
 Alpha  occ. eigenvalues --   -0.47679  -0.47636  -0.47489  -0.47266  -0.47087
 Alpha  occ. eigenvalues --   -0.46536  -0.46172  -0.45869  -0.45525  -0.45353
 Alpha  occ. eigenvalues --   -0.45267  -0.45036  -0.44759  -0.44687  -0.44294
 Alpha  occ. eigenvalues --   -0.44132  -0.43671  -0.43095  -0.42922  -0.42704
 Alpha  occ. eigenvalues --   -0.42446  -0.42062  -0.41857  -0.41574  -0.41420
 Alpha  occ. eigenvalues --   -0.41076  -0.40925  -0.40798  -0.40199  -0.40139
 Alpha  occ. eigenvalues --   -0.39699  -0.39251  -0.39103  -0.39022  -0.38867
 Alpha  occ. eigenvalues --   -0.38631  -0.38038  -0.37896  -0.37560  -0.37153
 Alpha  occ. eigenvalues --   -0.36708  -0.36600  -0.36208  -0.36085  -0.35564
 Alpha  occ. eigenvalues --   -0.35468  -0.35443  -0.35276  -0.34823  -0.34239
 Alpha  occ. eigenvalues --   -0.34005  -0.33107  -0.32850  -0.30774  -0.30385
 Alpha  occ. eigenvalues --   -0.29920  -0.29131  -0.28844  -0.28715  -0.28109
 Alpha  occ. eigenvalues --   -0.28074  -0.27788  -0.27576  -0.26909  -0.25434
 Alpha  occ. eigenvalues --   -0.24395  -0.21436  -0.19372
 Alpha virt. eigenvalues --   -0.11447  -0.07767  -0.06133  -0.03783  -0.03057
 Alpha virt. eigenvalues --   -0.02376  -0.01986  -0.01789  -0.01537  -0.01381
 Alpha virt. eigenvalues --   -0.00824  -0.00739  -0.00371  -0.00008   0.00414
 Alpha virt. eigenvalues --    0.00445   0.00668   0.00881   0.01026   0.01233
 Alpha virt. eigenvalues --    0.01826   0.01900   0.02031   0.02248   0.02279
 Alpha virt. eigenvalues --    0.02448   0.02614   0.02669   0.02686   0.02845
 Alpha virt. eigenvalues --    0.03064   0.03306   0.03403   0.03660   0.03817
 Alpha virt. eigenvalues --    0.03942   0.04072   0.04166   0.04305   0.04539
 Alpha virt. eigenvalues --    0.04708   0.04914   0.04974   0.05062   0.05185
 Alpha virt. eigenvalues --    0.05354   0.05477   0.05716   0.05815   0.05902
 Alpha virt. eigenvalues --    0.06021   0.06290   0.06382   0.06590   0.06957
 Alpha virt. eigenvalues --    0.07101   0.07185   0.07505   0.07571   0.07780
 Alpha virt. eigenvalues --    0.07880   0.08039   0.08198   0.08369   0.08560
 Alpha virt. eigenvalues --    0.08615   0.08740   0.09027   0.09161   0.09429
 Alpha virt. eigenvalues --    0.09504   0.09628   0.09820   0.10094   0.10173
 Alpha virt. eigenvalues --    0.10453   0.10531   0.10693   0.10868   0.11064
 Alpha virt. eigenvalues --    0.11199   0.11262   0.11407   0.11703   0.11736
 Alpha virt. eigenvalues --    0.11978   0.12086   0.12188   0.12397   0.12498
 Alpha virt. eigenvalues --    0.12599   0.12751   0.12996   0.13036   0.13145
 Alpha virt. eigenvalues --    0.13282   0.13504   0.13692   0.13757   0.13957
 Alpha virt. eigenvalues --    0.14074   0.14203   0.14277   0.14473   0.14566
 Alpha virt. eigenvalues --    0.14774   0.14873   0.14945   0.15073   0.15209
 Alpha virt. eigenvalues --    0.15270   0.15426   0.15567   0.15760   0.15841
 Alpha virt. eigenvalues --    0.15990   0.16174   0.16317   0.16388   0.16500
 Alpha virt. eigenvalues --    0.16605   0.16793   0.17045   0.17074   0.17145
 Alpha virt. eigenvalues --    0.17305   0.17415   0.17691   0.17848   0.17973
 Alpha virt. eigenvalues --    0.18093   0.18135   0.18352   0.18482   0.18595
 Alpha virt. eigenvalues --    0.18763   0.18959   0.19033   0.19096   0.19345
 Alpha virt. eigenvalues --    0.19398   0.19527   0.19629   0.19904   0.19983
 Alpha virt. eigenvalues --    0.20127   0.20278   0.20371   0.20490   0.20542
 Alpha virt. eigenvalues --    0.20588   0.20754   0.20837   0.20957   0.20989
 Alpha virt. eigenvalues --    0.21092   0.21136   0.21400   0.21469   0.21624
 Alpha virt. eigenvalues --    0.21705   0.21775   0.21925   0.21974   0.22100
 Alpha virt. eigenvalues --    0.22169   0.22299   0.22464   0.22667   0.22717
 Alpha virt. eigenvalues --    0.22865   0.22946   0.23172   0.23301   0.23434
 Alpha virt. eigenvalues --    0.23501   0.23568   0.23805   0.23913   0.24034
 Alpha virt. eigenvalues --    0.24239   0.24335   0.24368   0.24549   0.24592
 Alpha virt. eigenvalues --    0.24743   0.24863   0.25044   0.25221   0.25256
 Alpha virt. eigenvalues --    0.25579   0.25801   0.25878   0.25967   0.26063
 Alpha virt. eigenvalues --    0.26177   0.26291   0.26442   0.26585   0.26695
 Alpha virt. eigenvalues --    0.26847   0.27033   0.27208   0.27255   0.27527
 Alpha virt. eigenvalues --    0.27571   0.27650   0.27825   0.27889   0.27966
 Alpha virt. eigenvalues --    0.28031   0.28189   0.28342   0.28575   0.28650
 Alpha virt. eigenvalues --    0.28800   0.28917   0.29033   0.29194   0.29280
 Alpha virt. eigenvalues --    0.29402   0.29720   0.29804   0.29948   0.30057
 Alpha virt. eigenvalues --    0.30161   0.30370   0.30451   0.30567   0.30689
 Alpha virt. eigenvalues --    0.30973   0.31042   0.31131   0.31425   0.31518
 Alpha virt. eigenvalues --    0.31625   0.31868   0.32063   0.32123   0.32263
 Alpha virt. eigenvalues --    0.32342   0.32370   0.32564   0.32662   0.32866
 Alpha virt. eigenvalues --    0.32927   0.33262   0.33312   0.33390   0.33513
 Alpha virt. eigenvalues --    0.33654   0.33813   0.34010   0.34313   0.34377
 Alpha virt. eigenvalues --    0.34524   0.34628   0.34725   0.34846   0.35200
 Alpha virt. eigenvalues --    0.35213   0.35478   0.35555   0.35965   0.36061
 Alpha virt. eigenvalues --    0.36266   0.36456   0.36722   0.36789   0.36909
 Alpha virt. eigenvalues --    0.37279   0.37375   0.37520   0.37781   0.37917
 Alpha virt. eigenvalues --    0.38160   0.38280   0.38429   0.38719   0.38847
 Alpha virt. eigenvalues --    0.38885   0.38943   0.39452   0.39584   0.39885
 Alpha virt. eigenvalues --    0.40011   0.40401   0.40622   0.40749   0.40909
 Alpha virt. eigenvalues --    0.41065   0.41383   0.41707   0.41738   0.42164
 Alpha virt. eigenvalues --    0.42268   0.42651   0.42875   0.43141   0.43318
 Alpha virt. eigenvalues --    0.43521   0.43696   0.43830   0.43835   0.44013
 Alpha virt. eigenvalues --    0.44155   0.44255   0.44373   0.44706   0.44919
 Alpha virt. eigenvalues --    0.45097   0.45521   0.45794   0.46278   0.46407
 Alpha virt. eigenvalues --    0.46501   0.46788   0.47226   0.47575   0.47697
 Alpha virt. eigenvalues --    0.47935   0.48540   0.48616   0.48974   0.49011
 Alpha virt. eigenvalues --    0.49307   0.49659   0.49831   0.50020   0.50104
 Alpha virt. eigenvalues --    0.50419   0.50758   0.51120   0.51450   0.51839
 Alpha virt. eigenvalues --    0.51910   0.52435   0.52562   0.52760   0.52879
 Alpha virt. eigenvalues --    0.53068   0.53182   0.53244   0.53536   0.53681
 Alpha virt. eigenvalues --    0.53850   0.54108   0.54130   0.54450   0.54617
 Alpha virt. eigenvalues --    0.54842   0.55095   0.55474   0.55805   0.56011
 Alpha virt. eigenvalues --    0.56089   0.56356   0.56450   0.56869   0.57071
 Alpha virt. eigenvalues --    0.57446   0.57501   0.57694   0.57943   0.58145
 Alpha virt. eigenvalues --    0.58310   0.58622   0.58902   0.59080   0.59278
 Alpha virt. eigenvalues --    0.59378   0.59625   0.60146   0.60257   0.60363
 Alpha virt. eigenvalues --    0.60502   0.60583   0.60848   0.60890   0.61206
 Alpha virt. eigenvalues --    0.61414   0.61539   0.61778   0.61971   0.62099
 Alpha virt. eigenvalues --    0.62162   0.62294   0.62496   0.62664   0.62740
 Alpha virt. eigenvalues --    0.62929   0.63130   0.63274   0.63346   0.63732
 Alpha virt. eigenvalues --    0.63781   0.63982   0.64192   0.64344   0.64518
 Alpha virt. eigenvalues --    0.64882   0.65092   0.65164   0.65412   0.65752
 Alpha virt. eigenvalues --    0.65892   0.66198   0.66219   0.66494   0.66567
 Alpha virt. eigenvalues --    0.66769   0.66786   0.67023   0.67209   0.67504
 Alpha virt. eigenvalues --    0.67630   0.67911   0.68057   0.68135   0.68251
 Alpha virt. eigenvalues --    0.68486   0.68756   0.68922   0.68946   0.69184
 Alpha virt. eigenvalues --    0.69440   0.69539   0.69590   0.69748   0.69917
 Alpha virt. eigenvalues --    0.70265   0.70328   0.70439   0.70502   0.70664
 Alpha virt. eigenvalues --    0.70957   0.71075   0.71275   0.71443   0.71721
 Alpha virt. eigenvalues --    0.71877   0.72054   0.72253   0.72334   0.72514
 Alpha virt. eigenvalues --    0.72927   0.73169   0.73217   0.73318   0.73628
 Alpha virt. eigenvalues --    0.73765   0.73916   0.74125   0.74172   0.74446
 Alpha virt. eigenvalues --    0.74600   0.74949   0.75047   0.75144   0.75455
 Alpha virt. eigenvalues --    0.75739   0.75840   0.76080   0.76202   0.76425
 Alpha virt. eigenvalues --    0.76803   0.77130   0.77193   0.77251   0.77451
 Alpha virt. eigenvalues --    0.77562   0.77829   0.77984   0.78013   0.78320
 Alpha virt. eigenvalues --    0.78553   0.78816   0.79027   0.79195   0.79498
 Alpha virt. eigenvalues --    0.79706   0.79838   0.80012   0.80305   0.80416
 Alpha virt. eigenvalues --    0.80508   0.80709   0.80869   0.81050   0.81200
 Alpha virt. eigenvalues --    0.81448   0.81625   0.81766   0.81949   0.82111
 Alpha virt. eigenvalues --    0.82270   0.82473   0.82652   0.82684   0.82780
 Alpha virt. eigenvalues --    0.83123   0.83352   0.83420   0.83725   0.83857
 Alpha virt. eigenvalues --    0.84015   0.84448   0.84468   0.84633   0.84891
 Alpha virt. eigenvalues --    0.85165   0.85361   0.85412   0.85499   0.85951
 Alpha virt. eigenvalues --    0.85968   0.86357   0.86502   0.86675   0.87074
 Alpha virt. eigenvalues --    0.87383   0.87687   0.87951   0.88398   0.88567
 Alpha virt. eigenvalues --    0.88731   0.89107   0.89237   0.89632   0.89729
 Alpha virt. eigenvalues --    0.89773   0.89997   0.90360   0.90606   0.90932
 Alpha virt. eigenvalues --    0.91196   0.91291   0.92018   0.92068   0.92184
 Alpha virt. eigenvalues --    0.92323   0.92703   0.92926   0.93127   0.93379
 Alpha virt. eigenvalues --    0.93665   0.93704   0.94343   0.94597   0.94782
 Alpha virt. eigenvalues --    0.94861   0.95302   0.95671   0.95805   0.96166
 Alpha virt. eigenvalues --    0.96382   0.96598   0.97005   0.97145   0.97449
 Alpha virt. eigenvalues --    0.97903   0.98128   0.98525   0.98590   0.98993
 Alpha virt. eigenvalues --    0.99281   0.99759   1.00003   1.00293   1.00406
 Alpha virt. eigenvalues --    1.00689   1.00804   1.01106   1.01165   1.01744
 Alpha virt. eigenvalues --    1.01824   1.02173   1.02589   1.03033   1.03244
 Alpha virt. eigenvalues --    1.03490   1.03736   1.04049   1.04310   1.04492
 Alpha virt. eigenvalues --    1.04619   1.05171   1.05461   1.05632   1.06080
 Alpha virt. eigenvalues --    1.06223   1.06665   1.06724   1.06981   1.07629
 Alpha virt. eigenvalues --    1.07980   1.08186   1.08394   1.08883   1.09040
 Alpha virt. eigenvalues --    1.09189   1.09898   1.10061   1.10468   1.11079
 Alpha virt. eigenvalues --    1.11430   1.11634   1.11927   1.12175   1.12720
 Alpha virt. eigenvalues --    1.12808   1.12998   1.13357   1.13440   1.13765
 Alpha virt. eigenvalues --    1.14150   1.14241   1.14703   1.14792   1.15469
 Alpha virt. eigenvalues --    1.15825   1.16154   1.16358   1.16645   1.16863
 Alpha virt. eigenvalues --    1.17016   1.17305   1.17723   1.17953   1.18101
 Alpha virt. eigenvalues --    1.18282   1.18335   1.18640   1.18810   1.19118
 Alpha virt. eigenvalues --    1.19220   1.20015   1.20295   1.20807   1.21079
 Alpha virt. eigenvalues --    1.21247   1.21335   1.21693   1.21915   1.22075
 Alpha virt. eigenvalues --    1.22517   1.22743   1.23078   1.23340   1.23568
[...]
   D70       -3.12501  -0.00000  -0.00030   0.00001  -0.00030  -3.12530
   D71        3.10813   0.00000   0.00032  -0.00001   0.00032   3.10845
   D72       -0.01875  -0.00000  -0.00036   0.00001  -0.00035  -0.01910
   D73        3.13480  -0.00000  -0.00020   0.00001  -0.00019   3.13461
   D74       -0.00058  -0.00000  -0.00004   0.00001  -0.00004  -0.00062
   D75       -0.02149   0.00001   0.00048  -0.00000   0.00048  -0.02101
   D76        3.12631   0.00001   0.00065  -0.00001   0.00063   3.12694
   D77       -0.47226  -0.00003  -0.00360  -0.00002  -0.00361  -0.47588
   D78        2.65146  -0.00003  -0.00487   0.00010  -0.00476   2.64669
   D79        2.66292  -0.00003  -0.00376  -0.00001  -0.00377   2.65914
   D80       -0.49655  -0.00003  -0.00503   0.00011  -0.00492  -0.50147
   D81        0.00046  -0.00001  -0.00036   0.00000  -0.00035   0.00011
   D82        3.12101   0.00000   0.00031  -0.00001   0.00030   3.12131
   D83       -3.13493  -0.00000  -0.00020  -0.00000  -0.00020  -3.13513
   D84       -0.01438   0.00001   0.00047  -0.00002   0.00045  -0.01393
   D85        2.30637  -0.00001   0.00030   0.00004   0.00034   2.30671
   D86       -0.86020   0.00000   0.00117   0.00003   0.00120  -0.85900
   D87       -0.81783  -0.00001   0.00156  -0.00008   0.00147  -0.81636
   D88        2.29879   0.00000   0.00242  -0.00009   0.00233   2.30112
   D89       -0.84577   0.00000   0.00260  -0.00013   0.00247  -0.84330
   D90        2.31400  -0.00001   0.00188  -0.00012   0.00177   2.31577
   D91        2.27841  -0.00000   0.00135  -0.00001   0.00133   2.27974
   D92       -0.84501  -0.00001   0.00063   0.00000   0.00063  -0.84438
   D93       -0.01533   0.00001   0.00040  -0.00002   0.00039  -0.01495
   D94        3.11411   0.00001   0.00052  -0.00001   0.00051   3.11462
   D95       -3.13251  -0.00001  -0.00044  -0.00001  -0.00045  -3.13296
   D96       -0.00307  -0.00001  -0.00032   0.00000  -0.00032  -0.00339
   D97       -3.13074  -0.00001  -0.00071   0.00001  -0.00070  -3.13145
   D98        0.01448  -0.00001  -0.00065  -0.00000  -0.00065   0.01383
   D99       -0.01362   0.00000   0.00014  -0.00000   0.00014  -0.01348
   D100       3.13160   0.00001   0.00020  -0.00001   0.00019   3.13180
   D101       0.01576   0.00001   0.00025  -0.00000   0.00024   0.01601
   D102      -3.13661   0.00000   0.00016  -0.00000   0.00015  -3.13646
   D103      -3.13800   0.00001   0.00036   0.00001   0.00037  -3.13764
   D104      -0.00719   0.00000   0.00027   0.00001   0.00028  -0.00691
   D105      -0.01179   0.00000   0.00002   0.00000   0.00002  -0.01177
   D106       3.13397  -0.00000   0.00000  -0.00000   0.00000   3.13398
   D107       3.14081   0.00000   0.00011   0.00000   0.00011   3.14092
   D108       0.00338   0.00000   0.00010  -0.00000   0.00009   0.00347
   D109      -0.00470  -0.00000  -0.00020  -0.00000  -0.00020  -0.00490
   D110      -3.12911  -0.00000  -0.00014   0.00000  -0.00013  -3.12924
   D111       3.13308  -0.00000  -0.00019   0.00000  -0.00018   3.13289
   D112       0.00867  -0.00000  -0.00012   0.00001  -0.00012   0.00855
   D113      -0.00564  -0.00000  -0.00028  -0.00000  -0.00028  -0.00592
   D114       3.13999  -0.00000  -0.00029  -0.00001  -0.00030   3.13970
   D115       0.01759   0.00000   0.00012   0.00000   0.00012   0.01771
   D116      -3.12764  -0.00000   0.00005   0.00001   0.00007  -3.12758
   D117      -3.14158   0.00000   0.00005  -0.00000   0.00005  -3.14153
   D118      -0.00363  -0.00000  -0.00001   0.00001  -0.00001  -0.00363
   D119      -1.06825   0.00000   0.00024  -0.00000   0.00024  -1.06800
   D120       1.06862  -0.00000   0.00021   0.00000   0.00021   1.06883
   D121      -3.14136   0.00000   0.00023  -0.00000   0.00023  -3.14114
   D122      -3.13911  -0.00001  -0.00064   0.00002  -0.00062  -3.13973
   D123       0.00912  -0.00001  -0.00059   0.00001  -0.00059   0.00853
   D124      -0.01538   0.00000   0.00007   0.00001   0.00007  -0.01531
   D125       3.13285   0.00000   0.00011  -0.00001   0.00010   3.13295
   D126       3.12272   0.00000   0.00042  -0.00001   0.00040   3.12312
   D127      -0.01053   0.00001   0.00037  -0.00002   0.00036  -0.01017
   D128      -0.00118  -0.00001  -0.00028   0.00000  -0.00028  -0.00146
   D129      -3.13442  -0.00001  -0.00033   0.00000  -0.00032  -3.13474
   D130       0.01974   0.00000   0.00013  -0.00001   0.00013   0.01986
   D131      -3.13863   0.00000   0.00008   0.00000   0.00008  -3.13855
   D132      -3.12850   0.00000   0.00009   0.00000   0.00009  -3.12841
   D133      -0.00368  -0.00000   0.00003   0.00002   0.00005  -0.00363
   D134      -0.00735  -0.00000  -0.00013   0.00001  -0.00012  -0.00747
   D135       3.13339  -0.00000  -0.00009   0.00002  -0.00007   3.13333
   D136      -3.13182  -0.00000  -0.00007  -0.00000  -0.00007  -3.13190
   D137       0.00892  -0.00000  -0.00003   0.00001  -0.00002   0.00889
   D138      -0.00898  -0.00000  -0.00009  -0.00000  -0.00009  -0.00907
   D139      -3.13815   0.00000   0.00009   0.00000   0.00009  -3.13806
   D140       3.13339  -0.00000  -0.00013  -0.00001  -0.00014   3.13325
   D141       0.00422   0.00000   0.00005  -0.00001   0.00004   0.00427
   D142      -0.00418  -0.00000  -0.00011   0.00001  -0.00010  -0.00428
   D143       3.13658  -0.00000  -0.00007   0.00002  -0.00005   3.13653
   D144       0.01333   0.00001   0.00030  -0.00000   0.00029   0.01362
   D145      -3.13666   0.00001   0.00034  -0.00000   0.00034  -3.13633
   D146      -3.14098   0.00000   0.00012  -0.00001   0.00011  -3.14087
   D147      -0.00779   0.00000   0.00016  -0.00000   0.00016  -0.00763
   D148      -1.07060   0.00000   0.00005  -0.00003   0.00001  -1.07058
   D149       1.06626  -0.00000   0.00000  -0.00003  -0.00003   1.06623
   D150       3.13943  -0.00000   0.00002  -0.00003  -0.00000   3.13943
   D151      -0.00162   0.00001   0.00043  -0.00001   0.00042  -0.00120
   D152       3.09943   0.00000   0.00032  -0.00001   0.00031   3.09974
   D153      -3.12213  -0.00000  -0.00023   0.00001  -0.00023  -3.12236
   D154      -0.02108  -0.00000  -0.00035   0.00001  -0.00034  -0.02142
   D155      -3.12819  -0.00000  -0.00028   0.00000  -0.00028  -3.12847
   D156       0.00077  -0.00000  -0.00012  -0.00001  -0.00013   0.00064
   D157      -0.02129   0.00000   0.00004   0.00001   0.00005  -0.02123
   D158       3.10768  -0.00000   0.00020  -0.00000   0.00020   3.10788
   D159      -0.00711   0.00001   0.00052  -0.00004   0.00048  -0.00663
   D160      -3.12567   0.00001  -0.00028  -0.00005  -0.00033  -3.12600
   D161       0.00542  -0.00001  -0.00052   0.00004  -0.00048   0.00494
   D162       3.12872   0.00000   0.00123   0.00004   0.00127   3.12999
   D163       3.12226  -0.00001   0.00035   0.00005   0.00041   3.12266
   D164      -0.03763   0.00000   0.00210   0.00005   0.00216  -0.03548
   D165       2.86803   0.00005   0.02076   0.00011   0.02087   2.88890
   D166      -0.26994   0.00004   0.02174   0.00011   0.02186  -0.24809
   D167      -0.24637   0.00005   0.01982   0.00009   0.01992  -0.22645
   D168       2.89884   0.00004   0.02080   0.00010   0.02090   2.91974
   D169      -3.14126   0.00003   0.00301   0.00000   0.00301  -3.13825
   D170      -0.00260   0.00004   0.00222  -0.00000   0.00222  -0.00038
   D171       3.12925  -0.00002  -0.00273  -0.00000  -0.00273   3.12652
   D172      -0.10427  -0.00004  -0.00238   0.00001  -0.00237  -0.10664
   D173      -0.00902  -0.00003  -0.00183  -0.00000  -0.00183  -0.01086
   D174       3.04063  -0.00004  -0.00148   0.00001  -0.00147   3.03917
   D175       0.01341  -0.00003  -0.00203   0.00000  -0.00202   0.01138
   D176      -3.06928  -0.00001   0.00028   0.00002   0.00030  -3.06898
   D177      -0.02098   0.00002   0.00130  -0.00000   0.00130  -0.01968
   D178      -3.04274  -0.00000   0.00005   0.00001   0.00006  -3.04268
   D179       3.04646   0.00000  -0.00152  -0.00002  -0.00154   3.04491
   D180       0.02469  -0.00002  -0.00278  -0.00000  -0.00278   0.02192
   D181      -2.81191  -0.00002   0.00023  -0.00001   0.00022  -2.81170
   D182       0.27908   0.00003   0.00176  -0.00004   0.00172   0.28080
   D183       0.40850   0.00001   0.00327   0.00000   0.00328   0.41178
   D184      -2.78369   0.00005   0.00480  -0.00002   0.00478  -2.77891
   D185       0.02015   0.00001   0.00034   0.00000   0.00034   0.02049
   D186      -3.05020   0.00002   0.00004  -0.00001   0.00003  -3.05017
   D187       3.06915   0.00002   0.00123  -0.00001   0.00122   3.07037
   D188      -0.00121   0.00003   0.00093  -0.00002   0.00091  -0.00029
   D189       3.01717   0.00002   0.00071   0.00002   0.00074   3.01791
   D190      -0.00702  -0.00001  -0.00054   0.00004  -0.00050  -0.00753
   D191      -3.03842  -0.00002  -0.00127  -0.00003  -0.00130  -3.03973
   D192       0.08252   0.00002   0.00028   0.00002   0.00030   0.08282
   D193       0.01191  -0.00004  -0.00092  -0.00002  -0.00093   0.01098
   D194       3.13285  -0.00000   0.00064   0.00004   0.00067   3.13353
   D195      -0.01751   0.00003   0.00050   0.00005   0.00055  -0.01696
   D196       3.13669   0.00004   0.00111   0.00002   0.00113   3.13782
   D197      -3.13965  -0.00000  -0.00098  -0.00000  -0.00098  -3.14063
   D198       0.01455  -0.00000  -0.00037  -0.00003  -0.00040   0.01414
   D199       0.01435  -0.00001   0.00002  -0.00005  -0.00003   0.01432
   D200      -3.13949  -0.00002  -0.00057  -0.00002  -0.00059  -3.14008
   D201      -0.00204  -0.00005  -0.00057   0.00003  -0.00054  -0.00259
   D202       3.13980   0.00005   0.00071   0.00001   0.00072   3.14052
   D203      -3.13008  -0.00004   0.00008  -0.00000   0.00008  -3.13001
   D204       0.01176   0.00005   0.00136  -0.00002   0.00134   0.01310
   D205      -3.13151  -0.00005  -0.00058   0.00001  -0.00057  -3.13208
   D206       0.01033   0.00005   0.00071  -0.00001   0.00070   0.01103
   D207      -1.06065   0.00000   0.00032  -0.00000   0.00032  -1.06033
   D208       1.04532  -0.00000   0.00031   0.00000   0.00032   1.04563
   D209       3.13305  -0.00000   0.00030   0.00000   0.00030   3.13334
   D210       0.21461   0.00000   0.00188  -0.00003   0.00185   0.21646
   D211      -3.09097   0.00008   0.00520  -0.00006   0.00514  -3.08583
   D212      -2.87582  -0.00004   0.00034  -0.00000   0.00034  -2.87548
   D213       0.10178   0.00004   0.00367  -0.00004   0.00363   0.10541
   D214       0.43911   0.00001  -0.00342   0.00000  -0.00342   0.43569
   D215      -2.68666  -0.00010  -0.00543   0.00003  -0.00540  -2.69206
   D216      -2.85496   0.00008  -0.00040  -0.00003  -0.00043  -2.85538
   D217       0.30246  -0.00003  -0.00241  -0.00000  -0.00241   0.30005
   D218       0.27890  -0.00006  -0.00235  -0.00001  -0.00236   0.27654
   D219      -2.87801   0.00004  -0.00040  -0.00003  -0.00043  -2.87845
         Item               Value     Threshold  Converged?
 Maximum Force            0.000252     0.000450     YES
 RMS     Force            0.000043     0.000300     YES
 Maximum Displacement     0.116464     0.001800     NO 
 RMS     Displacement     0.019211     0.001200     NO 
 Predicted change in Energy=-5.766964D-06
 GradGradGradGradGradGradGradGradGradGradGradGradGradGradGradGradGradGrad

 Stoichiometry    C43H32N2O6S4
 Framework group  C1[X(C43H32N2O6S4)]
 Deg. of freedom   255
 Full point group                 C1      NOp   1
 Largest Abelian subgroup         C1      NOp   1
 Largest concise Abelian subgroup C1      NOp   1
                         Standard orientation:                         
 ---------------------------------------------------------------------
 Center     Atomic      Atomic             Coordinates (Angstroms)
 Number     Number       Type             X           Y           Z
 ---------------------------------------------------------------------
      1          6           0       -0.936196   -3.091917    0.075313
      2          6           0       -2.111431   -2.133771    0.023175
      3          6           0       -1.670737   -0.821033   -0.060884
      4          6           0       -0.246316   -0.806529   -0.072685
      5         16           0        1.034142    0.327286   -0.152746
      6          6           0        2.221594   -0.949307   -0.068059
      7          6           0        3.639326   -0.638556   -0.089617
      8          6           0        4.130532    0.615460    0.289003
      9          6           0        5.479671    0.902451    0.270097
     10          6           0        6.412694   -0.060457   -0.135318
     11          7           0        7.775288    0.225218   -0.164637
     12          6           0        8.234060    1.552109   -0.355012
     13          6           0        9.213608    2.086974    0.470548
     14          1           0        9.617813    1.483335    1.275806
     15          6           0        9.693753    3.375721    0.273400
     16          6           0        9.177086    4.157600   -0.754104
     17          6           0        8.189047    3.627594   -1.584414
     18          6           0        7.732590    2.340390   -1.393460
     19          1           0        6.973577    1.933638   -2.052765
     20          1           0        7.802114    4.242277   -2.389237
     21          8           0        9.566105    5.425627   -1.028154
     22          6           0       10.560380    5.996937   -0.210304
     23          1           0       10.234361    6.056936    0.833954
     24          1           0       11.497758    5.432353   -0.265675
     25          1           0       10.725135    7.003108   -0.592412
     26          1           0       10.461344    3.757660    0.934147
     27          6           0        8.737726   -0.797903    0.017662
     28          6           0        8.634370   -1.702724    1.066111
     29          6           0        9.580034   -2.704606    1.245458
     30          6           0       10.664648   -2.796584    0.379308
     31          6           0       10.781728   -1.881804   -0.667020
     32          6           0        9.827621   -0.902581   -0.848927
     33          1           0        9.924488   -0.198704   -1.668231
     34          1           0       11.629417   -1.965353   -1.337623
     35          8           0       11.645961   -3.726263    0.469356
     36          6           0       11.565932   -4.663866    1.517069
     37          1           0       11.599678   -4.174212    2.496640
     38          1           0       10.654797   -5.268270    1.445282
     39          1           0       12.434594   -5.311687    1.410602
     40          1           0        9.465420   -3.393793    2.072314
     41          1           0        7.797759   -1.629174    1.752442
     42          6           0        5.928821   -1.319235   -0.518193
     43          6           0        4.578387   -1.595174   -0.494802
     44          1           0        4.239631   -2.567621   -0.835767
     45          1           0        6.625365   -2.077991   -0.854579
     46          1           0        5.823873    1.880312    0.584886
     47          1           0        3.442218    1.378628    0.639390
     48          6           0        1.613963   -2.187121    0.004579
     49          6           0        0.214580   -2.105944    0.002407
     50          1           0        2.182226   -3.105237    0.087151
     51         16           0       -2.959401    0.295002   -0.118602
     52          6           0       -4.133288   -0.999765   -0.017740
     53          6           0       -3.498901   -2.234402    0.047523
     54          1           0       -4.053585   -3.162605    0.125460
     55          6           0       -5.532098   -0.742626   -0.035956
     56         16           0       -6.645828   -2.025818   -0.308821
     57          6           0       -8.063006   -1.007522   -0.201613
     58          6           0       -7.645746    0.301276    0.027267
     59          6           0       -6.235789    0.455664    0.135496
     60          6           0       -5.863511    1.781605    0.486051
     61          6           0       -6.945639    2.582927    0.647692
     62         16           0       -8.471493    1.781237    0.357800
     63          6           0       -6.875550    4.003760    1.015437
     64          8           0       -5.847475    4.600067    1.213186
     65          8           0       -8.093262    4.548480    1.104265
     66          6           0       -8.117650    5.933049    1.446065
     67          1           0       -7.657563    6.090935    2.422414
     68          1           0       -7.579300    6.517182    0.698666
     69          1           0       -9.168670    6.211534    1.466386
     70          1           0       -4.858667    2.151807    0.635587
     71          6           0       -9.317063   -1.652127   -0.278796
     72          6           0      -10.558272   -1.154225   -0.567215
     73          6           0      -10.752319    0.143028   -1.104227
     74          7           0      -10.888750    1.187229   -1.576010
     75          6           0      -11.776035   -2.006864   -0.527431
     76          8           0      -11.719361   -3.096342    0.273786
     77          1           0      -10.980795   -3.019462    0.886608
     78          8           0      -12.760753   -1.777396   -1.166965
     79          1           0       -9.271495   -2.729078   -0.120888
     80          6           0       -0.914409   -3.881596    1.388262
     81          1           0       -0.918220   -3.210895    2.249763
     82          1           0       -1.787209   -4.536550    1.456371
     83          1           0       -0.018850   -4.506249    1.442439
     84          6           0       -0.933889   -4.042991   -1.126136
     85          1           0       -0.952238   -3.487979   -2.066155
     86          1           0       -0.038305   -4.669849   -1.113942
     87          1           0       -1.806716   -4.700740   -1.096423
 ---------------------------------------------------------------------
 Rotational constants (GHZ):           0.0827833           0.0107886           0.0097102
 Standard basis: 6-311+G(2d,p) (5D, 7F)
 There are  1819 symmetry adapted cartesian basis functions of A   symmetry.
 There are  1709 symmetry adapted basis functions of A   symmetry.
  1709 basis functions,  2622 primitive gaussians,  1819 cartesian basis functions
   208 alpha electrons      208 beta electrons
       nuclear repulsion energy      7181.7240431147 Hartrees.
 NAtoms=   87 NActive=   87 NUniq=   87 SFac= 1.00D+00 NAtFMM=   60 NAOKFM=T Big=T
 Integral buffers will be    131072 words long.
 Raffenetti 2 integral format.
 Two-electron integral symmetry is turned on.
 One-electron integrals computed using PRISM.
 NBasis=  1709 RedAO= T EigKep=  1.24D-06  NBF=  1709
 NBsUse=  1686 1.00D-06 EigRej=  9.87D-07 NBFU=  1686
 Initial guess from the checkpoint file:  "/tmp/r2652.865709.maple/Gau-36366.chk"
 B after Tr=     0.000000    0.000000   -0.000000
         Rot=    1.000000   -0.000094    0.000000    0.000005 Ang=  -0.01 deg.
 ExpMin= 4.05D-02 ExpMax= 9.34D+04 ExpMxC= 3.17D+03 IAcc=3 IRadAn=         5 AccDes= 0.00D+00
 Harris functional with IExCor= 1009 and IRadAn=       5 diagonalized for initial guess.
 HarFok:  IExCor= 1009 AccDes= 0.00D+00 IRadAn=         5 IDoV= 1 UseB2=F ITyADJ=14
 ICtDFT=  3500011 ScaDFX=  1.000000  1.000000  1.000000  1.000000
 FoFCou: FMM=F IPFlag=           0 FMFlag=      100000 FMFlg1=        2001
         NFxFlg=           0 DoJE=T BraDBF=F KetDBF=T FulRan=T
         wScrn=  0.000000 ICntrl=       500 IOpCl=  0 I1Cent=   200000004 NGrid=           0
         NMat0=    1 NMatS0=      1 NMatT0=    0 NMatD0=    1 NMtDS0=    0 NMtDT0=    0
 Petite list used in FoFCou.
 Requested convergence on RMS density matrix=1.00D-08 within 128 cycles.
 Requested convergence on MAX density matrix=1.00D-06.
 Requested convergence on             energy=1.00D-06.
 No special actions if energy rises.
